/*--------------------------------*- C++ -*----------------------------------*\
| =========                 |                                                 |
| \\      /  F ield         | OpenFOAM: The Open Source CFD Toolbox           |
|  \\    /   O peration     | Version:  2.1.x                                 |
|   \\  /    A nd           | Web:      www.OpenFOAM.org                      |
|    \\/     M anipulation  |                                                 |
\*---------------------------------------------------------------------------*/
FoamFile
{
    version     2.0;
    format      ascii;
    class       volScalarField;
    location    "1";
    object      p;
}
// * * * * * * * * * * * * * * * * * * * * * * * * * * * * * * * * * * * * * //

dimensions      [0 2 -2 0 0 0 0];

internalField   nonuniform List<scalar> 
114040
(
-1.8036
-1.63476
-0.249416
-0.672399
-0.177965
-0.0738855
-0.0288899
0.00680986
0.0176817
0.0187663
0.04315
0.0733431
0.0862505
0.108548
0.106813
0.0948277
0.046743
-0.0818663
-0.181892
-2.01713
-1.78026
-0.646768
-0.707575
-0.331029
-0.123864
-0.0576765
-0.0194785
0.00391448
0.0203644
0.0399766
0.0569461
0.0692125
0.0818617
0.0609927
-0.00502503
-0.181648
-0.494053
-0.819417
-2.11101
-1.84391
-0.819519
-0.751746
-0.396649
-0.17956
-0.0893373
-0.0420281
-0.0166174
-0.0112096
-0.0212282
-0.0400669
-0.0630666
-0.0913782
-0.148233
-0.259151
-0.468749
-0.795936
-1.20241
-2.0832
-1.7905
-0.795091
-0.731325
-0.367967
-0.144094
-0.0560313
-0.00739927
0.0131454
0.00557083
-0.0222673
-0.0643177
-0.117903
-0.181836
-0.269355
-0.397047
-0.595752
-0.87124
-1.21409
-2.03424
-1.6537
-0.694302
-0.59551
-0.243371
-0.017477
0.0765599
0.121411
0.137885
0.129033
0.100169
0.058182
0.00208178
-0.070112
-0.16913
-0.286239
-0.430388
-0.614143
-0.820305
-1.91928
-1.46763
-0.507297
-0.407612
-0.0610302
0.164509
0.253902
0.298053
0.315967
0.312998
0.300554
0.281728
0.248928
0.201984
0.125892
0.0395691
-0.0311006
-0.0809081
-0.101351
-1.85439
-1.3038
-0.356309
-0.219008
0.105696
0.325182
0.420221
0.464628
0.483812
0.487343
0.486903
0.485251
0.475313
0.461807
0.438258
0.417703
0.408689
0.485052
0.680497
-1.85033
-1.19246
-0.238715
-0.0917702
0.223902
0.440921
0.534295
0.581917
0.605272
0.61433
0.622079
0.630099
0.632286
0.638612
0.649883
0.678554
0.72994
0.902142
1.25679
-1.93868
-1.1545
-0.191377
-0.00785114
0.288802
0.501321
0.602228
0.652258
0.677615
0.690462
0.700638
0.706963
0.705897
0.710731
0.715907
0.741569
0.828553
1.0398
1.41818
-2.05677
-1.15901
-0.181503
0.0146738
0.303096
0.511351
0.610616
0.664315
0.693271
0.707233
0.714888
0.714428
0.700174
0.680311
0.645793
0.616124
0.664519
0.833186
1.10155
-2.22135
-1.21652
-0.22745
0.00578495
0.279832
0.480339
0.580668
0.630401
0.651704
0.655033
0.648099
0.627026
0.582686
0.522024
0.433179
0.3229
0.277943
0.329376
0.390861
-2.40626
-1.30201
-0.298103
-0.049711
0.216817
0.407244
0.49589
0.535542
0.54284
0.526012
0.49294
0.43923
0.351949
0.239207
0.0913797
-0.0859617
-0.242433
-0.359028
-0.516657
-2.64935
-1.41774
-0.396234
-0.116794
0.135788
0.311202
0.388699
0.41063
0.394184
0.348296
0.280021
0.182683
0.0409383
-0.128048
-0.319519
-0.55186
-0.79473
-1.07256
-1.42933
-2.85924
-1.49734
-0.461616
-0.182103
0.0571768
0.215141
0.271495
0.272947
0.232628
0.157832
0.0562497
-0.0811199
-0.270414
-0.474747
-0.698586
-0.970408
-1.27883
-1.67736
-2.18616
-2.96373
-1.50388
-0.470465
-0.185241
0.0373107
0.173858
0.212218
0.192313
0.128864
0.0311287
-0.0936204
-0.25535
-0.46675
-0.687202
-0.92583
-1.21953
-1.5776
-2.05888
-2.66262
-2.9709
-1.39279
-0.351514
-0.0812135
0.119367
0.235248
0.252342
0.215057
0.137884
0.0312202
-0.0976433
-0.257658
-0.461741
-0.667809
-0.902152
-1.2126
-1.60315
-2.14019
-2.77442
-2.84094
-1.15216
-0.0974006
0.167721
0.345007
0.442447
0.449616
0.405544
0.327725
0.229099
0.117464
-0.0165732
-0.189302
-0.369092
-0.590335
-0.905749
-1.32238
-1.88149
-2.49482
-2.59584
-0.790419
0.300055
0.552017
0.712267
0.80075
0.806581
0.770617
0.709212
0.635712
0.556811
0.461515
0.333162
0.19453
-0.00857182
-0.324271
-0.750584
-1.30114
-1.85759
-2.2811
-0.358439
0.775548
1.03502
1.19017
1.28415
1.31088
1.30302
1.27526
1.2393
1.20043
1.14706
1.06067
0.954884
0.769424
0.466601
0.0369546
-0.476536
-0.940376
-1.98533
0.0773269
1.26357
1.53937
1.71095
1.83197
1.89615
1.9324
1.94884
1.95359
1.9495
1.92496
1.87061
1.7953
1.63778
1.35591
0.956477
0.520729
0.154993
-1.78436
0.42897
1.67131
1.99507
2.2037
2.36975
2.48923
2.57909
2.64019
2.6766
2.69113
2.67662
2.6307
2.56623
2.43042
2.18814
1.86595
1.55691
1.33342
-1.75431
0.633164
1.95572
2.34165
2.60472
2.82561
2.99801
3.13199
3.21959
3.26314
3.26789
3.23585
3.1724
3.10539
2.99401
2.81496
2.61218
2.47103
2.42539
-1.92314
0.663716
2.08535
2.55901
2.87741
3.14326
3.35242
3.5045
3.58662
3.60333
3.56603
3.48739
3.37893
3.28495
3.181
3.07079
3.01677
3.06541
3.25057
-2.29653
0.53271
2.08384
2.64558
3.00517
3.28747
3.49278
3.62046
3.65514
3.60671
3.49712
3.34733
3.17293
3.03451
2.92576
2.87547
2.94687
3.1672
3.59083
-2.81158
0.282613
1.96335
2.6086
2.97572
3.22911
3.38402
3.44237
3.39331
3.25417
3.0554
2.82156
2.57026
2.36854
2.22425
2.19259
2.3394
2.68994
3.30482
-3.42694
-0.0530102
1.7347
2.42784
2.75662
2.92835
2.98123
2.93283
2.77987
2.5455
2.2611
1.94853
1.62009
1.34458
1.1364
1.0708
1.21787
1.61737
2.31388
-4.0859
-0.469946
1.34284
2.04703
2.27921
2.31578
2.23426
2.0682
1.82141
1.51639
1.17594
0.810056
0.418712
0.0612291
-0.250761
-0.424648
-0.365403
-0.0187788
0.637717
-4.8017
-1.02524
0.698169
1.35789
1.44435
1.3093
1.08518
0.82043
0.519988
0.19358
-0.153167
-0.526507
-0.949939
-1.37686
-1.81456
-2.16259
-2.29653
-2.14063
-1.69782
-5.58442
-1.81812
-0.328091
0.207808
0.120066
-0.1856
-0.518501
-0.825298
-1.10946
-1.38699
-1.67535
-1.99808
-2.40706
-2.8744
-3.43545
-3.99658
-4.40619
-4.57935
-4.54145
-6.44389
-2.93726
-1.84233
-1.52574
-1.77778
-2.20305
-2.58143
-2.84726
-3.0305
-3.18185
-3.34242
-3.54915
-3.88515
-4.34164
-4.98628
-5.74571
-6.46708
-7.0629
-7.59759
-7.22681
-4.32818
-3.82277
-3.80003
-4.16462
-4.61261
-4.93826
-5.06477
-5.06845
-5.03074
-5.00835
-5.04591
-5.25177
-5.63535
-6.29125
-7.17813
-8.17232
-9.188
-10.3339
-7.45672
-5.53256
-5.79199
-6.09933
-6.43607
-6.74156
-6.88641
-6.80551
-6.60676
-6.37889
-6.17776
-6.04518
-6.10467
-6.375
-6.9686
-7.87048
-9.02287
-10.3518
-11.9682
-5.89487
-5.08708
-6.11226
-6.58659
-6.62579
-6.58423
-6.43555
-6.17204
-5.87049
-5.58192
-5.3384
-5.1751
-5.19773
-5.43341
-5.96368
-6.78864
-7.96932
-9.45032
-11.2473
-0.176336
0.213883
-1.13293
-1.27487
-0.613055
-0.0389552
0.392772
0.697035
0.876646
0.954913
0.948568
0.817254
0.540244
0.0427482
-0.629438
-1.47267
-2.67995
-4.2413
-5.94301
13.0293
15.2015
14.7966
15.6872
17.2505
18.3498
18.8698
18.9436
18.7065
18.2561
17.678
16.9419
16.0821
15.0777
13.9681
12.761
11.3079
9.53884
7.93823
35.024
43.2343
45.9456
48.5588
51.0239
52.459
52.8443
52.5428
51.7907
50.7052
49.4162
47.9411
46.3313
44.6317
42.8454
41.0388
39.08
36.9535
35.4019
64.1706
84.006
92.0094
96.8971
100.245
101.813
101.906
101.17
99.8815
98.1728
96.2066
94.1469
91.9983
89.9068
87.6863
85.3446
82.8786
80.4456
78.81
81.5396
119.189
133.363
138.668
141.551
142.787
142.812
142.328
141.453
140.201
138.808
137.854
136.966
136.688
136.339
135.679
134.818
134.106
133.655
28.8831
64.7107
74.9241
73.7284
72.2385
71.4948
71.3202
71.6849
72.4437
73.4037
74.7568
77.2997
80.5189
85.5365
91.9339
99.2003
106.979
115.875
124.651
-148.96
-163.077
-176.808
-191.253
-200.762
-205.944
-208.515
-209.447
-208.523
-206.385
-203.384
-199.245
-193.608
-186.39
-176.763
-164.477
-150.132
-132.882
-113.673
-282.001
-361.73
-389.858
-410.755
-423.371
-431.258
-436.047
-438.661
-438.145
-435.229
-430.786
-426.278
-422.066
-418.865
-416.076
-412.823
-406.726
-397.137
-383.961
-278.259
-367.929
-393.272
-407.379
-418.686
-425.543
-429.436
-430.693
-431.005
-428.576
-424.093
-420.347
-419.613
-421.927
-428.88
-441.265
-453.396
-466.319
-480.194
-104.298
-153.782
-169.338
-179.038
-188.007
-195.62
-201.193
-205.098
-207.233
-207.308
-205.872
-204.83
-207.218
-211.618
-221.124
-237.887
-256.541
-277.905
-300.824
183.203
186.324
175.845
167.349
159.962
152.339
144.874
137.197
129.737
121.78
113.046
105.899
98.3325
91.6074
89.441
94.2792
99.693
108.212
120.782
140.583
160.747
157.457
153.587
149.464
144.945
139.786
133.936
127.121
118.499
108.566
101.167
97.41
97.2984
99.6934
104.847
111.042
119.524
129.808
81.8391
104.392
107.202
106.381
104.577
102.412
99.7006
96.4675
92.45
86.8905
80.6335
76.1518
74.0029
74.4756
76.5225
79.7449
83.5715
87.7162
91.2499
56.0476
69.7371
74.2957
75.4034
74.8399
73.795
72.2449
70.2403
67.5508
63.6598
59.7003
56.9368
55.9061
56.5817
58.3299
60.713
63.2481
65.6487
67.2447
36.14
44.631
49.2537
51.2403
51.3715
51.0603
50.3817
49.3927
48.0147
46.0711
44.4589
43.2366
42.7376
43.3589
44.6524
46.1937
47.6683
48.8416
49.1082
28.1815
32.5462
35.5581
37.6964
38.5236
38.8789
38.8284
38.4617
37.8229
36.8638
36.0525
35.0647
34.3468
34.7357
35.7545
37.0028
38.2513
39.3364
39.7706
17.9882
21.9533
24.6256
26.856
28.2433
29.2955
29.9283
30.2216
30.3398
30.2212
29.9566
29.1123
28.3832
28.6349
29.296
30.1579
30.9989
31.5518
31.3577
15.9768
18.7777
21.0003
23.2269
24.9633
26.332
27.1481
27.4943
27.5305
27.0509
26.3008
25.3892
24.7361
24.8576
25.3341
26.1823
27.1416
27.7746
27.7464
12.8414
16.0289
18.4003
20.6625
22.4565
23.7947
24.577
25.0033
25.131
24.699
23.7842
22.9484
22.4109
22.3956
22.6133
23.1674
23.8058
23.9169
23.3161
14.7402
17.0196
19.0976
21.182
22.5534
23.3179
23.5757
23.6707
23.4433
22.7857
22.0052
21.3599
21.0067
21.0468
21.271
21.8544
22.5616
22.662
22.2318
15.1545
17.1511
18.9067
20.99
21.9644
22.5289
22.7821
22.7419
22.2867
21.5785
21.0027
20.5881
20.3524
20.3699
20.4386
20.7178
21.0267
20.6056
19.6648
14.9254
16.4651
17.8466
19.9453
20.3732
20.8646
21.198
21.2043
20.8694
20.4431
20.1146
19.9694
19.954
20.1349
20.2966
20.598
20.8976
20.4633
19.6801
14.6119
15.0792
16.7142
17.8715
18.9784
19.6064
20.0897
20.179
20.0031
19.8494
19.7618
19.7861
19.8839
20.0543
20.0986
20.0921
19.9872
19.1721
17.9563
12.9535
13.2491
14.6102
15.7437
16.6782
17.4598
18.0932
18.4104
18.5504
18.7048
18.9435
19.2299
19.5553
19.9042
20.1154
20.1668
20.0855
19.3885
18.3381
11.6014
12.1766
12.8378
13.8737
14.9924
15.9496
16.7035
17.2115
17.6014
17.963
18.392
18.8019
19.2206
19.5271
19.6539
19.4677
19.0793
18.1987
16.8982
9.35373
10.0042
10.4791
11.392
12.3991
13.3923
14.2794
15.0342
15.7184
16.3656
17.0861
17.7631
18.4081
18.928
19.2414
19.2224
18.9372
18.2809
17.2271
7.47614
8.55258
9.0659
9.87268
10.7182
11.5895
12.4737
13.3379
14.1907
15.0097
15.9039
16.7256
17.4733
17.9298
18.151
17.9814
17.515
16.8149
15.7028
5.37781
6.15879
6.70914
7.42883
8.15007
8.94888
9.84071
10.8224
11.8611
12.9108
14.0821
15.2147
16.2043
16.8969
17.3035
17.3478
17.0379
16.5403
15.6942
3.20623
4.71618
5.25787
5.92572
6.55501
7.22056
7.99683
8.91557
9.97565
11.1
12.339
13.5808
14.6383
15.2789
15.583
15.5225
15.1515
14.6498
13.8978
2.23435
2.75854
3.16519
3.79526
4.42541
5.07652
5.82735
6.75141
7.85459
9.12037
10.5352
11.9827
13.2606
14.1244
14.5346
14.637
14.4349
14.0679
13.6077
0.182385
1.99313
2.28489
2.78304
3.26817
3.72845
4.28461
5.02708
5.9869
7.13036
8.44416
9.87596
11.1213
11.9012
12.2194
12.2863
12.1733
11.9838
11.8997
1.31493
1.51348
1.44449
1.81994
2.26525
2.77423
3.35161
4.07568
4.9749
6.09664
7.4067
8.867
10.129
10.9836
11.3928
11.5404
11.6032
11.6867
12.0766
-0.299921
1.53921
1.39573
1.53129
1.68415
1.87307
2.17539
2.63674
3.2561
4.10423
5.12852
6.33627
7.48381
8.21185
8.72005
9.01544
9.54216
10.2897
11.424
3.3662
3.03561
2.35629
2.22616
2.35291
2.6568
3.02235
3.45343
4.00559
4.72758
5.63126
6.66584
7.56205
8.32154
8.91434
9.4544
10.2656
11.41
12.9113
1.25177
2.85646
2.3439
2.13452
2.01107
1.93215
1.96661
2.11258
2.40733
2.88576
3.46699
4.2306
5.14496
6.04749
7.05923
8.15791
9.68723
11.5879
13.3447
7.20091
6.80606
6.35515
6.07193
6.00128
6.13186
6.30644
6.48021
6.67074
6.95696
7.3616
7.89132
8.56193
9.51974
10.5212
11.5458
12.7807
14.0948
14.8423
6.60995
8.59222
8.19106
8.20566
8.22908
8.08291
7.95117
7.87893
7.8898
7.9232
7.90747
8.08074
8.80045
9.82897
10.8136
11.7193
12.7795
13.6758
13.6341
14.4698
15.1135
15.7539
15.995
16.141
16.1814
16.0876
15.8866
15.5944
15.2804
14.9775
14.7583
14.5589
14.9593
14.7897
14.385
13.9991
13.2499
12.4182
11.6461
14.0869
13.3046
12.9628
12.5732
12.0067
11.4261
10.9174
10.5418
10.2364
9.77896
9.23009
8.7648
7.93424
7.32128
6.93674
7.18115
8.13227
9.76902
14.9251
13.6791
14.4972
13.6848
13.3515
13.6057
13.7339
13.8611
13.8989
13.8846
13.9937
13.8753
13.2256
13.0299
13.1326
13.5901
14.0558
14.9026
16.2455
-1.43475
-1.27947
-0.34972
-0.448889
-0.129433
-0.0605033
-0.0668521
-0.0420766
-0.0218104
-0.0175211
-0.00565206
0.0113404
0.0181706
0.0277822
0.0246224
0.0086477
-0.0320109
-0.134907
-0.274263
-1.8216
-1.41629
-0.665514
-0.551702
-0.320419
-0.160083
-0.0988209
-0.0632656
-0.0363503
-0.0201076
-0.0112682
-0.0115571
-0.00977869
-0.0114926
-0.0435301
-0.114025
-0.29367
-0.59177
-0.936436
-1.94048
-1.48822
-0.809651
-0.613894
-0.373119
-0.202526
-0.111164
-0.0624908
-0.0358022
-0.0308416
-0.0463632
-0.0773368
-0.107856
-0.146678
-0.209583
-0.320693
-0.527688
-0.851688
-1.26728
-1.94272
-1.31418
-0.765363
-0.582076
-0.333512
-0.150475
-0.0615137
-0.0123471
0.0108327
0.00417207
-0.0272709
-0.0776135
-0.133997
-0.205271
-0.297687
-0.422894
-0.60539
-0.868869
-1.21366
-1.88958
-1.1778
-0.660245
-0.463684
-0.217806
-0.0326681
0.0661619
0.115009
0.134465
0.12552
0.0911076
0.0381608
-0.0217196
-0.103757
-0.215612
-0.329647
-0.469137
-0.626843
-0.798242
-1.81301
-0.95587
-0.460856
-0.293802
-0.0583663
0.12713
0.222302
0.269775
0.290032
0.284835
0.26223
0.225749
0.183032
0.119322
0.0298216
-0.0679962
-0.148538
-0.168739
-0.132245
-1.75319
-0.820386
-0.318581
-0.134089
0.0893552
0.268943
0.370257
0.419251
0.43939
0.438402
0.425467
0.403036
0.378105
0.342594
0.299839
0.261652
0.233223
0.331898
0.559271
-1.7792
-0.668822
-0.190369
-0.019656
0.194271
0.373049
0.474099
0.526264
0.551285
0.556342
0.552023
0.540206
0.528771
0.515238
0.505732
0.513195
0.549421
0.723332
1.05832
-1.83535
-0.626898
-0.135161
0.0524016
0.259638
0.435615
0.543776
0.599639
0.62757
0.638046
0.638648
0.62899
0.618821
0.608208
0.599154
0.603936
0.669114
0.876649
1.20474
-1.91539
-0.584612
-0.100786
0.0807833
0.2803
0.454169
0.561356
0.620207
0.651249
0.661768
0.6596
0.644119
0.623418
0.592685
0.551378
0.518768
0.558704
0.726839
0.939867
-2.01042
-0.625579
-0.124933
0.075225
0.270728
0.438446
0.544946
0.599206
0.621471
0.620172
0.601871
0.564171
0.513482
0.443081
0.349302
0.254435
0.218474
0.288962
0.3149
-2.08735
-0.657707
-0.162569
0.0325644
0.220303
0.380093
0.475446
0.518393
0.525275
0.501369
0.453512
0.379687
0.284709
0.155805
-0.00199391
-0.159477
-0.282743
-0.343378
-0.51621
-2.15088
-0.732621
-0.240872
-0.0343801
0.148048
0.295666
0.379117
0.404682
0.388263
0.335737
0.252217
0.134299
-0.0159188
-0.20925
-0.42787
-0.650303
-0.850169
-1.05752
-1.3921
-2.17657
-0.770375
-0.298324
-0.106342
0.0633156
0.197308
0.262367
0.268636
0.229407
0.148076
0.0304531
-0.128134
-0.324806
-0.565958
-0.824524
-1.09722
-1.37828
-1.71296
-2.15851
-2.18984
-0.781274
-0.324045
-0.136043
0.0216494
0.138606
0.186393
0.173256
0.113108
0.0110344
-0.127599
-0.308812
-0.528356
-0.792888
-1.08822
-1.39922
-1.73981
-2.16978
-2.6916
-2.07368
-0.676832
-0.235852
-0.0709619
0.0673127
0.164853
0.192326
0.162708
0.0900384
-0.0205445
-0.163935
-0.345406
-0.559424
-0.825414
-1.14748
-1.47095
-1.84978
-2.34024
-2.88032
-1.83004
-0.45511
-0.0266381
0.129213
0.251801
0.330249
0.344467
0.307011
0.23372
0.131663
0.00585074
-0.149957
-0.336593
-0.581198
-0.901043
-1.24877
-1.65385
-2.17068
-2.67193
-1.4273
-0.0927074
0.33175
0.470877
0.579415
0.646869
0.656235
0.623877
0.564834
0.485805
0.389942
0.268798
0.119624
-0.0893678
-0.384287
-0.734893
-1.15244
-1.67099
-2.1049
-0.942562
0.354428
0.780239
0.925175
1.03446
1.10478
1.12808
1.1186
1.08931
1.04474
0.986325
0.905193
0.79447
0.623959
0.36482
0.0321824
-0.397455
-0.90183
-1.24389
-0.415165
0.83202
1.27298
1.42948
1.55512
1.64859
1.7031
1.73179
1.74175
1.73286
1.70444
1.6484
1.5615
1.41826
1.19885
0.889646
0.488537
0.0543596
-0.214791
0.0221907
1.24135
1.71136
1.91173
2.0774
2.21289
2.31546
2.39167
2.4415
2.45992
2.44663
2.39839
2.31822
2.19086
2.00078
1.73231
1.40405
1.0858
0.90875
0.327228
1.5212
2.04828
2.30598
2.5276
2.71762
2.87016
2.98724
3.06139
3.08469
3.05978
2.99123
2.89137
2.75974
2.59675
2.38594
2.17196
2.00712
1.96831
0.411693
1.61986
2.22825
2.56956
2.8564
3.09706
3.28706
3.42359
3.4946
3.4935
3.42942
3.31716
3.17829
3.02836
2.87847
2.73606
2.65476
2.66514
2.81945
0.298102
1.53346
2.25065
2.67525
3.01621
3.28587
3.47976
3.59841
3.62958
3.57128
3.44197
3.26508
3.06703
2.87572
2.72396
2.64431
2.68682
2.86818
3.24171
-0.0337743
1.25888
2.08395
2.59438
2.96365
3.22164
3.3747
3.43404
3.39294
3.25624
3.0502
2.80206
2.53871
2.29421
2.11465
2.06549
2.1899
2.51448
3.08113
-0.531212
0.797429
1.70443
2.27068
2.62395
2.81735
2.87826
2.84109
2.70879
2.49086
2.21362
1.90039
1.57093
1.25647
1.01945
0.953643
1.10603
1.51009
2.19209
-1.21799
0.115089
1.03588
1.60181
1.88557
1.95917
1.89016
1.74058
1.52338
1.24797
0.930848
0.580151
0.204362
-0.1755
-0.492694
-0.629903
-0.521438
-0.121472
0.56049
-2.0596
-0.825762
0.0183763
0.474519
0.624601
0.534863
0.321998
0.0697676
-0.20235
-0.492443
-0.802959
-1.15223
-1.5483
-1.98683
-2.40177
-2.65987
-2.67061
-2.38123
-1.83133
-3.04219
-2.05095
-1.42918
-1.17867
-1.21624
-1.47859
-1.81518
-2.13433
-2.4113
-2.66563
-2.92656
-3.23176
-3.61296
-4.08605
-4.58986
-5.00127
-5.20431
-5.13981
-4.88712
-3.97732
-3.46997
-3.24392
-3.30152
-3.55839
-3.96221
-4.3705
-4.69463
-4.91255
-5.0785
-5.24594
-5.47047
-5.81643
-6.32298
-6.9143
-7.49792
-7.9537
-8.21918
-8.42795
-4.49901
-4.76384
-5.12126
-5.54481
-5.98736
-6.4408
-6.8271
-7.06893
-7.17188
-7.21957
-7.2756
-7.40293
-7.69613
-8.22381
-8.92767
-9.71735
-10.4722
-11.1467
-11.924
-3.72497
-5.09476
-6.15784
-6.91084
-7.37396
-7.71479
-7.94644
-8.0308
-8.00959
-7.96958
-7.95993
-8.03141
-8.29977
-8.85978
-9.69198
-10.7125
-11.8357
-13.0296
-14.4199
-0.302908
-2.80739
-4.51659
-5.31703
-5.47109
-5.47971
-5.44575
-5.37262
-5.30524
-5.29424
-5.35127
-5.50415
-5.85482
-6.50411
-7.48548
-8.73691
-10.224
-11.9801
-14.0106
7.53576
4.65272
2.84931
2.40014
2.93778
3.43749
3.74522
3.85419
3.78974
3.57224
3.2399
2.79198
2.17569
1.33287
0.166574
-1.25891
-3.05399
-5.28922
-7.76782
20.6182
19.8551
19.4247
20.0255
21.3984
22.4105
22.8644
22.8317
22.4773
21.8829
21.1136
20.194
19.1214
17.8486
16.3398
14.6864
12.7
10.2501
7.85898
38.3943
42.9272
45.63
47.9493
50.0829
51.5259
51.9617
51.6565
50.9167
49.8897
48.6315
47.2082
45.665
44.0151
42.266
40.5503
38.7397
36.5889
34.884
55.3085
69.1109
76.3847
80.2221
82.7296
84.0682
84.2348
83.65
82.6511
81.3842
79.9743
78.5546
77.2042
75.9984
74.9365
74.0383
73.3106
72.5629
72.7078
53.8036
74.1954
84.078
86.8652
87.7969
88.0212
87.7377
87.2276
86.6355
85.993
85.4999
85.4633
85.8885
87.0923
88.9401
91.3597
94.3299
97.984
102.858
7.83793
18.8503
22.1403
19.4066
16.2883
14.0775
12.6586
11.8761
11.6183
11.7415
12.3879
13.9354
16.2359
19.7119
24.4137
30.2897
37.5125
46.8104
57.6409
-84.4118
-104.113
-117.34
-128.649
-137.161
-142.675
-146.222
-148.309
-149.095
-148.944
-148.07
-146.308
-144.031
-141.654
-138.603
-134.995
-129.967
-122.144
-112.434
-145.772
-192.6
-213.935
-228.668
-239.246
-246.425
-251.332
-254.363
-255.705
-255.47
-254.51
-253.183
-252.724
-254.471
-257.818
-263.113
-268.026
-271.082
-272.517
-138.036
-186.632
-206.22
-220.24
-229.385
-236.271
-240.767
-243.747
-245.549
-245.594
-244.858
-244.024
-245.095
-249.005
-255.414
-264.897
-275.549
-288.375
-303.308
-66.5554
-96.9442
-112.861
-122.166
-129.664
-135.566
-140.061
-143.437
-145.717
-146.844
-146.743
-146.159
-147.272
-149.111
-151.579
-154.449
-157.704
-164.985
-175.49
35.9206
31.5247
22.2504
16.5982
11.7075
7.4809
3.79325
0.603214
-2.05024
-4.54755
-6.1445
-7.03635
-8.63017
-7.98942
-5.85546
-1.27562
3.91588
12.9345
27.4176
51.6441
61.3667
59.5387
57.123
54.2403
51.5317
48.6901
45.7937
42.7955
39.0186
34.6851
30.6273
28.7255
30.4339
34.0733
39.4184
45.6428
53.5143
62.836
55.8404
69.2604
71.3105
70.4387
68.4657
66.4341
64.0875
61.4556
58.3433
54.0576
48.6159
44.2628
43.5426
44.9794
48.3445
53.1901
58.9223
65.3187
71.3377
42.7636
52.5523
56.5439
57.2141
56.3106
55.1704
53.8085
52.1762
50.1365
47.078
43.1802
40.3547
39.9168
41.0102
43.4602
46.7292
50.252
53.8338
56.4972
35.8089
42.4406
45.8583
46.9943
46.5583
45.8536
44.922
43.7234
42.0655
39.5708
36.8768
35.3225
35.0704
35.9629
37.781
40.0182
42.4385
44.7494
46.1246
24.3329
28.4056
31.322
32.9977
33.3621
33.4665
33.3753
33.0423
32.3367
31.0803
29.9631
29.2709
29.081
29.8044
31.1908
32.7537
34.2406
35.3744
35.6223
19.9714
23.5912
25.762
27.192
27.7941
28.2174
28.3835
28.19
27.5083
26.2362
25.0736
24.7341
24.6027
25.1935
26.2886
27.6688
29.0967
30.1976
30.5175
13.6698
16.6668
18.95
20.789
22.0215
23.0282
23.6626
23.843
23.604
22.8365
22.0081
21.6579
21.4904
21.9022
22.638
23.6277
24.6244
25.153
24.8792
13.6775
16.5303
18.6959
20.4594
21.6605
22.4489
22.6304
22.236
21.6276
20.8718
20.2096
19.8339
19.7165
20.0933
20.668
21.6015
22.6666
23.2187
23.0316
12.739
15.1235
17.4744
19.5409
20.8886
21.6563
21.7282
21.2749
20.6108
19.9685
19.4504
19.1049
18.9958
19.2916
19.6096
20.1749
20.7912
20.7301
20.0817
13.1611
15.0677
17.1479
19.0597
20.0909
20.6399
20.7032
20.3546
19.8507
19.4151
19.1253
18.9817
18.9929
19.2955
19.5405
20.0005
20.5576
20.4126
19.6974
13.9502
15.2117
17.0439
18.7592
19.5979
20.0444
20.1509
19.9547
19.6402
19.4077
19.3019
19.3008
19.3791
19.639
19.7104
19.7704
19.8048
19.0966
18.0297
13.5261
14.2005
15.7953
17.212
18.0885
18.6134
18.9162
19.0092
19.0203
19.1077
19.3153
19.5234
19.777
20.0803
20.1572
20.1236
20.0789
19.3666
18.2077
13.2723
13.6116
14.7966
15.9621
16.8469
17.5167
18.0282
18.3906
18.6769
18.9875
19.3872
19.7241
20.0421
20.3196
20.2689
19.9154
19.4265
18.3984
17.0486
11.9265
12.2601
12.9543
13.8723
14.7767
15.6411
16.4267
17.1091
17.72
18.3059
18.9204
19.4244
19.8625
20.1597
20.1733
19.8803
19.4484
18.5908
17.305
10.5948
10.8343
11.3954
12.2183
13.0817
14.0075
14.9415
15.816
16.6201
17.339
18.0677
18.668
19.1875
19.4802
19.4642
19.0235
18.3454
17.4286
16.2039
8.73292
9.44176
9.90086
10.4981
11.2335
12.1074
13.0712
14.0611
15.0144
15.8603
16.674
17.3808
18.0261
18.3791
18.5126
18.2955
17.8509
17.2356
16.2221
6.45371
6.9917
7.68368
8.35421
9.02671
9.80529
10.6994
11.6791
12.6961
13.6594
14.6439
15.5367
16.3674
16.8398
17.0055
16.7528
16.2307
15.6904
14.8873
5.07379
6.26525
6.72587
7.15013
7.53951
8.06561
8.75149
9.61457
10.6338
11.6844
12.762
13.7942
14.7529
15.3091
15.5997
15.5893
15.3683
15.0831
14.5176
2.27263
2.42878
3.25371
4.00337
4.49055
5.03699
5.70488
6.53243
7.53846
8.68835
10.0112
11.3479
12.5824
13.3597
13.6868
13.6391
13.4159
13.2335
12.9444
2.51826
3.9963
4.2278
4.4637
4.66164
4.90519
5.28093
5.87426
6.67106
7.63125
8.81429
10.1087
11.2217
11.9527
12.308
12.4457
12.4996
12.4928
12.4668
-0.320832
-1.13232
-0.485405
0.340547
0.819473
1.29217
1.83564
2.51122
3.38038
4.49844
5.86206
7.41095
8.81371
9.78045
10.2222
10.3877
10.5755
10.8042
11.2169
3.08936
4.35449
4.1762
4.08079
3.99608
3.95151
4.06288
4.37745
4.86675
5.54008
6.38616
7.36643
8.30167
8.94412
9.34074
9.72249
10.1911
10.7154
11.4828
-0.155443
-2.0414
-1.84879
-1.30195
-1.00654
-0.660869
-0.24981
0.261253
0.926704
1.80633
2.99636
4.36296
5.56804
6.63567
7.3831
8.16769
9.06528
10.1618
11.4978
6.32582
7.34644
6.63384
6.36217
6.05282
5.74133
5.53018
5.48502
5.58392
5.77038
6.08899
6.45985
6.88775
7.4285
8.1291
9.2025
10.4356
11.7946
13.2068
2.66337
0.372987
0.0908398
0.355793
0.404187
0.580169
0.848606
1.18359
1.57512
2.07458
2.83292
3.81778
4.79332
6.1301
7.59382
9.35048
11.1871
13.0029
14.5347
11.9756
12.6666
12.1475
12.2861
12.285
12.0747
11.8415
11.6454
11.4159
11.1094
10.769
10.5547
10.6911
11.2019
12.1021
13.3679
14.7089
15.898
16.6791
10.7078
9.57623
9.6763
10.1424
10.4604
10.7026
10.7683
10.7618
10.7427
10.8202
11.08
11.5623
12.2401
13.3048
14.2587
14.822
15.4757
16.2869
16.5059
23.8295
25.6224
26.0677
26.6194
26.6981
26.3268
25.822
25.3813
25.0304
24.7111
24.234
23.5616
22.8425
21.7196
20.5472
19.0681
17.5033
16.2074
14.7582
7.70984
6.08989
4.86861
3.9574
3.50316
3.57195
3.50094
3.4622
3.43747
3.37204
3.24539
3.06313
2.59236
2.47339
1.86639
1.00615
0.725561
1.76857
4.18165
-1.62896
-0.716177
-0.345185
-0.327481
-0.122885
0.0371442
0.0646668
0.0776104
0.0906545
0.100587
0.111796
0.135078
0.132348
0.141233
0.139963
0.127419
0.0882016
-0.0252139
-0.14289
-1.84758
-0.992397
-0.555929
-0.413421
-0.266933
-0.120942
-0.0415896
-0.00785624
0.0139765
0.0330307
0.0457569
0.0521285
0.0494999
0.0470046
0.0157329
-0.0566724
-0.233209
-0.533591
-0.906776
-1.76989
-1.0644
-0.65591
-0.457378
-0.289646
-0.146695
-0.053665
-0.00351906
0.0214124
0.031109
0.0244177
0.00507559
-0.025631
-0.0621327
-0.130725
-0.240214
-0.443878
-0.77454
-1.1977
-1.80272
-0.935762
-0.58766
-0.404532
-0.227152
-0.0649954
0.03274
0.0815126
0.102864
0.104583
0.0874778
0.0563488
0.00653884
-0.0513979
-0.138445
-0.25985
-0.427959
-0.693377
-1.04051
-1.61167
-0.825852
-0.481547
-0.292604
-0.115987
0.0413331
0.145023
0.199917
0.221728
0.221438
0.20111
0.170132
0.121962
0.0677626
-0.00116416
-0.087371
-0.200404
-0.341782
-0.555064
-1.62448
-0.68277
-0.333118
-0.152478
0.0204783
0.180641
0.281401
0.332948
0.354834
0.357762
0.345704
0.325852
0.287846
0.251485
0.21493
0.193256
0.13663
0.103276
0.0752363
-1.48035
-0.595463
-0.211254
-0.0225293
0.147845
0.297503
0.397294
0.451639
0.474465
0.480815
0.476042
0.464826
0.436109
0.413861
0.397059
0.400636
0.439601
0.512541
0.64115
-1.44381
-0.497907
-0.112893
0.0744819
0.246053
0.399247
0.498396
0.553528
0.581251
0.595929
0.6022
0.602295
0.58416
0.57465
0.56728
0.574506
0.629208
0.785531
1.00421
-1.28799
-0.450309
-0.0495804
0.143056
0.315055
0.463374
0.563999
0.624365
0.658401
0.6816
0.695334
0.700221
0.685859
0.680102
0.666983
0.657179
0.697176
0.850622
1.08666
-1.28653
-0.427377
-0.0180014
0.178041
0.352822
0.503636
0.602933
0.663576
0.699569
0.72364
0.736863
0.739357
0.716937
0.69616
0.656466
0.608805
0.620965
0.725953
0.870191
-1.24555
-0.452669
-0.0145978
0.188264
0.360776
0.503301
0.597562
0.653991
0.682555
0.695291
0.692536
0.672997
0.62171
0.565163
0.479335
0.387743
0.334259
0.359865
0.359381
-1.28412
-0.49335
-0.0434208
0.160573
0.33244
0.47145
0.555361
0.599055
0.611848
0.603197
0.572287
0.518545
0.424451
0.316817
0.179362
0.0269537
-0.092603
-0.18135
-0.340346
-1.28403
-0.556654
-0.09715
0.106931
0.269405
0.395385
0.466886
0.495942
0.489276
0.455332
0.391628
0.296019
0.150976
-0.00999472
-0.197761
-0.396972
-0.591755
-0.805583
-1.11406
-1.32849
-0.620663
-0.167948
0.0274162
0.182587
0.299978
0.356877
0.369042
0.343163
0.28574
0.192958
0.0645145
-0.116218
-0.307707
-0.526261
-0.765207
-1.01616
-1.35039
-1.79175
-1.31722
-0.656025
-0.212364
-0.0263638
0.110669
0.209386
0.251385
0.249334
0.208083
0.134366
0.0259106
-0.118603
-0.314452
-0.506478
-0.719216
-0.99551
-1.31083
-1.73275
-2.26614
-1.25806
-0.611829
-0.182428
-0.0151421
0.105095
0.18764
0.212315
0.196095
0.145866
0.0681461
-0.0402545
-0.178559
-0.362227
-0.525899
-0.703007
-0.993619
-1.36004
-1.85337
-2.43664
-1.04326
-0.441799
-0.0256332
0.124027
0.220155
0.280232
0.290256
0.266883
0.217436
0.148298
0.0571753
-0.0582771
-0.217438
-0.353601
-0.503639
-0.770469
-1.15835
-1.67837
-2.28395
-0.707583
-0.131247
0.269773
0.401667
0.483193
0.531459
0.534089
0.512099
0.474664
0.42706
0.36343
0.278214
0.150249
0.0404946
-0.0951303
-0.349425
-0.732629
-1.23276
-1.80977
-0.22948
0.304728
0.698783
0.821494
0.893347
0.938066
0.948421
0.943327
0.929702
0.909717
0.87566
0.818566
0.71647
0.613682
0.467659
0.207155
-0.148733
-0.575956
-1.09844
0.285903
0.806777
1.20021
1.3267
1.4111
1.47477
1.51
1.53454
1.55203
1.56002
1.54785
1.50695
1.41741
1.31625
1.15546
0.894968
0.555953
0.203911
-0.20197
0.778921
1.29488
1.71126
1.86383
1.97731
2.07585
2.15179
2.21586
2.26454
2.29068
2.2852
2.24406
2.15189
2.04096
1.87272
1.6136
1.31524
1.03697
0.773572
1.12203
1.67882
2.14238
2.34367
2.51168
2.66374
2.78633
2.88565
2.95322
2.97971
2.95925
2.89539
2.78141
2.65751
2.48886
2.25722
2.0316
1.85755
1.75889
1.25412
1.88347
2.42687
2.70077
2.93223
3.13808
3.29911
3.41786
3.48236
3.48545
3.42893
3.32595
3.17966
3.03869
2.88173
2.70176
2.57171
2.51943
2.60526
1.09723
1.84466
2.48682
2.84376
3.14178
3.39094
3.56414
3.67028
3.70241
3.65886
3.54918
3.3951
3.20886
3.05097
2.905
2.7845
2.76019
2.85536
3.14213
0.638198
1.51111
2.2576
2.69187
3.0313
3.28686
3.431
3.48851
3.46203
3.35682
3.18898
2.9854
2.76376
2.59105
2.45973
2.39194
2.45561
2.69282
3.16713
-0.143774
0.826092
1.64086
2.11612
2.45856
2.67304
2.74075
2.71558
2.61496
2.44801
2.23078
1.98902
1.73937
1.55229
1.42289
1.38477
1.51803
1.8791
2.49556
-1.22208
-0.259175
0.556116
0.999243
1.27689
1.38979
1.34451
1.223
1.05303
0.843483
0.602801
0.347385
0.0834606
-0.123369
-0.263725
-0.294397
-0.126009
0.318935
1.0011
-2.53756
-1.74823
-1.06428
-0.758297
-0.625461
-0.652977
-0.82212
-1.03157
-1.24714
-1.46428
-1.69313
-1.9347
-2.20383
-2.44335
-2.62453
-2.68257
-2.51224
-2.03796
-1.37331
-3.88015
-3.51074
-3.12562
-3.08641
-3.18027
-3.38241
-3.66661
-3.94091
-4.16873
-4.35096
-4.52472
-4.72742
-4.99616
-5.29038
-5.55352
-5.69428
-5.59576
-5.17558
-4.62684
-4.81009
-5.1209
-5.25982
-5.61681
-5.98764
-6.35554
-6.71726
-7.02134
-7.23066
-7.3648
-7.48311
-7.65018
-7.92254
-8.29299
-8.71359
-9.04201
-9.14583
-8.94053
-8.66186
-4.56173
-5.73508
-6.54875
-7.36483
-7.99981
-8.4474
-8.81902
-9.10049
-9.28395
-9.40641
-9.52865
-9.72086
-10.0605
-10.5768
-11.2326
-11.8954
-12.4171
-12.7043
-12.9675
-2.12314
-4.09909
-5.46767
-6.60991
-7.32128
-7.67616
-7.94892
-8.17083
-8.35824
-8.55356
-8.79325
-9.129
-9.65525
-10.451
-11.5111
-12.7045
-13.8737
-14.9769
-16.1584
3.39467
1.21617
-0.14655
-1.17528
-1.65466
-1.73661
-1.81323
-1.95379
-2.18866
-2.52792
-2.97966
-3.57824
-4.41803
-5.59772
-7.16539
-8.99145
-10.9758
-13.1623
-15.4854