/*--------------------------------*- C++ -*----------------------------------*\
| =========                 |                                                 |
| \\      /  F ield         | OpenFOAM: The Open Source CFD Toolbox           |
|  \\    /   O peration     | Version:  2.1.x                                 |
|   \\  /    A nd           | Web:      www.OpenFOAM.org                      |
|    \\/     M anipulation  |                                                 |
\*---------------------------------------------------------------------------*/
FoamFile
{
    version     2.0;
    format      ascii;
    class       surfaceScalarField;
    location    "1";
    object      phi;
}
// * * * * * * * * * * * * * * * * * * * * * * * * * * * * * * * * * * * * * //

dimensions      [0 3 -1 0 0 0 0];

internalField   nonuniform List<scalar> 
334610
(
0.000974409
0.02369
0.0432227
0.0472022
0.0488805
0.0473013
0.0465132
0.0465164
0.0476251
0.0490467
0.0500803
0.0506914
0.0505077
0.0495151
0.0467054
0.0406128
0.0310474
0.0186165
-0.319429
-0.337751
0.00553161
-0.361001
0.0264176
-0.399017
0.0442769
-0.454341
0.0448011
-0.531574
0.0463969
-0.633376
0.0449206
-0.763053
0.0439249
-0.925759
0.0441005
-1.12823
0.0453914
-1.3797
0.0468201
-1.69021
0.0478709
-2.07206
0.0486687
-2.54277
0.0485693
-3.12202
0.0477997
-3.83242
0.045149
-4.70535
0.0393435
-5.77865
0.0303983
-7.0899
0.0184857
-0.322972
-0.340411
0.00610068
-0.363781
0.0255073
-0.401492
0.0418846
-0.457498
0.0431414
-0.534997
0.0442464
-0.637047
0.0430574
-0.766781
0.042231
-0.929365
0.0423448
-1.13155
0.0435641
-1.38255
0.0449879
-1.69228
0.0460366
-2.07289
0.0468139
-2.542
0.0468179
-3.11903
0.0461391
-3.82669
0.0436906
-4.69648
0.0382597
-5.76655
0.0297123
-7.07481
0.018246
-0.326763
-0.343295
0.0099364
-0.366507
0.0277043
-0.404026
0.0420525
-0.4604
0.0414993
-0.538392
0.0418867
-0.640467
0.040454
-0.770191
0.039741
-0.932666
0.0400867
-1.13458
0.0414631
-1.38508
0.042959
-1.694
0.0440811
-2.07342
0.0449376
-2.54082
0.0450621
-3.11558
0.044521
-3.82039
0.0423246
-4.68705
0.037232
-5.75358
0.0290428
-7.0584
0.0179786
-0.330075
-0.345885
0.0105188
-0.368673
0.0266162
-0.406702
0.0396053
-0.463346
0.0394286
-0.541671
0.0399008
-0.644011
0.0388013
-0.773739
0.0382031
-0.936087
0.0385072
-1.13778
0.0398264
-1.38786
0.0412853
-1.69603
0.042399
-2.07439
0.0432742
-2.54026
0.043476
-3.11294
0.0430311
-3.81528
0.0410541
-4.67876
0.0362834
-5.74159
0.0284319
-7.04335
0.0177162
-0.333611
-0.348512
0.0135609
-0.371256
0.0281525
-0.409197
0.0394983
-0.466291
0.038042
-0.544942
0.0378521
-0.647328
0.0365574
-0.777099
0.0360567
-0.939397
0.036528
-1.14091
0.0379483
-1.39065
0.0394578
-1.69822
0.0406341
-2.07569
0.0415877
-2.54028
0.0418999
-3.1111
0.0416171
-3.81105
0.0398639
-4.67193
0.03537
-5.73155
0.0278655
-7.02949
0.0174542
-0.336687
-0.350834
0.0141681
-0.373329
0.0270779
-0.411788
0.0369523
-0.469183
0.0359624
-0.548118
0.0359846
-0.650727
0.0350402
-0.780537
0.0346855
-0.942774
0.03514
-1.14416
0.0365028
-1.39359
0.0379704
-1.70061
0.0391387
-2.07728
0.0401132
-2.54069
0.0404925
-3.10987
0.04033
-3.80787
0.0387508
-4.66628
0.0345211
-5.7233
0.0273463
-7.01869
0.0171875
-0.339806
-0.353208
0.0164592
-0.375693
0.0281148
-0.414183
0.0366243
-0.471973
0.0347809
-0.551186
0.0342174
-0.653827
0.0331013
-0.783676
0.0328086
-0.945882
0.0334012
-1.14711
0.03485
-1.39623
0.0363563
-1.7027
0.0375737
-2.07851
0.0386177
-2.54076
0.0390995
-3.10843
0.0390857
-3.80451
0.0376863
-4.66038
0.0337219
-5.71455
0.0268549
-7.00782
0.0169072
-0.342489
-0.355204
0.0169722
-0.37759
0.0270487
-0.416595
0.0341331
-0.474645
0.032755
-0.554082
0.0324759
-0.656904
0.031719
-0.786786
0.031582
-0.948929
0.0321764
-1.15002
0.0335777
-1.39883
0.0350461
-1.70473
0.0362526
-2.07971
0.0373096
-2.54069
0.0378581
-3.10666
0.0379395
-3.80084
0.0366757
-4.65439
0.0329566
-5.70594
0.0263872
-6.99704
0.016697
-0.345206
-0.357289
0.0187216
-0.379747
0.0276859
-0.418865
0.033689
-0.477238
0.0317497
-0.556893
0.0309665
-0.659729
0.03005
-0.789628
0.029948
-0.951725
0.030651
-1.15266
0.0321216
-1.40115
0.0336208
-1.70648
0.0348661
-2.0806
0.0359803
-2.54038
0.036612
-3.10464
0.0368195
-3.79653
0.0357162
-4.64753
0.0321956
-5.69571
0.0259195
-6.98311
0.0165277
-0.347571
-0.359042
0.0191415
-0.381496
0.0266035
-0.421132
0.0313183
-0.479733
0.0298361
-0.559564
0.0293756
-0.662543
0.0288038
-0.792466
0.0288541
-0.954502
0.0295651
-1.1553
0.03099
-1.4035
0.0324516
-1.70832
0.033682
-2.08164
0.0348069
-2.54016
0.0354872
-3.10264
0.0357673
-3.7922
0.0348051
-4.64013
0.0314681
-5.68467
0.0254475
-6.968
0.0163838
-0.349966
-0.360924
0.0204316
-0.383539
0.0268958
-0.423329
0.0308153
-0.482203
0.0290013
-0.562215
0.0281119
-0.665199
0.0273708
-0.795128
0.0274212
-0.957113
0.0282055
-1.15776
0.029679
-1.40568
0.0311634
-1.70998
0.0324254
-2.08252
0.0336071
-2.53997
0.0343448
-3.1009
0.0347217
-3.78817
0.0339186
-4.63256
0.0307851
-5.67305
0.024984
-6.95092
0.0162438
-0.352036
-0.362536
0.020662
-0.38524
0.0258243
-0.425523
0.0286379
-0.4846
0.0272583
-0.564753
0.0266716
-0.667856
0.0262382
-0.797809
0.0264266
-0.959748
0.0272163
-1.16029
0.0286429
-1.40795
0.0300878
-1.7118
0.0313351
-2.08365
0.0325383
-2.53998
0.0333065
-3.09933
0.0337339
-3.78452
0.0330673
-4.62601
0.0301258
-5.66198
0.0245719
-6.9353
0.0161189
-0.3541
-0.364307
0.02155
-0.387255
0.0259385
-0.427699
0.0281579
-0.486997
0.0265636
-0.567307
0.0255993
-0.670423
0.0249953
-0.800394
0.0251548
-0.962303
0.025988
-1.16273
0.0274478
-1.41016
0.0289089
-1.71358
0.0301839
-2.08477
0.0314487
-2.54021
0.0322608
-3.09833
0.0327635
-3.78167
0.0322524
-4.6206
0.02949
-5.65245
0.0242051
-6.92032
0.0160356
-0.356131
-0.365909
0.0217436
-0.388959
0.0249226
-0.429833
0.0261935
-0.48933
0.0249977
-0.569762
0.0242837
-0.672994
0.0239608
-0.803011
0.0242487
-0.964912
0.0250895
-1.16529
0.0265063
-1.41254
0.0279283
-1.71561
0.0291947
-2.08626
0.0304852
-2.54077
0.0313255
-3.09753
0.0318789
-3.77921
0.031483
-4.61581
0.0288954
-5.64463
0.0238724
-6.908
0.0159519
-0.358011
-0.367607
0.0223192
-0.390951
0.0248733
-0.431995
0.0257242
-0.49167
0.0244127
-0.572247
0.0233579
-0.675512
0.0228825
-0.805578
0.0231305
-0.967494
0.0239984
-1.16782
0.0254411
-1.41493
0.0268805
-1.7177
0.0281812
-2.08786
0.0295207
-2.54168
0.0304066
-3.09741
0.0310503
-3.77762
0.0307674
-4.61219
0.0283528
-5.63807
0.0235626
-6.89684
0.0158261
-0.359821
-0.369145
0.0223671
-0.392637
0.0239506
-0.434066
0.023977
-0.49392
0.0229033
-0.574609
0.0221377
-0.678002
0.0219467
-0.808145
0.0223263
-0.970103
0.0232125
-1.17044
0.0246231
-1.41747
0.0260355
-1.72001
0.0273365
-2.08977
0.0286877
-2.54285
0.0296104
-3.09742
0.030322
-3.77606
0.0301197
-4.60858
0.027863
-5.63173
0.0232801
-6.88799
0.0156931
-0.361499
-0.370739
0.0226986
-0.394551
0.0238048
-0.43613
0.0235523
-0.496153
0.0223872
-0.576973
0.0213601
-0.680412
0.0210261
-0.810628
0.0213671
-0.97264
0.0222789
-1.17299
0.0237181
-1.41995
0.0251583
-1.7223
0.0264955
-2.09169
0.0278686
-2.54424
0.0288399
-3.09802
0.0296435
-3.77539
0.0295329
-4.60601
0.0274321
-5.62668
0.023023
-6.87928
0.0155777
-0.363079
-0.372148
0.0226702
-0.396155
0.0230062
-0.438058
0.0220194
-0.498229
0.0210029
-0.57915
0.0202664
-0.682714
0.0202009
-0.813018
0.020681
-0.975089
0.0216281
-1.17548
0.0230502
-1.42239
0.0244721
-1.72454
0.0258138
-2.09362
0.0271689
-2.54557
0.02818
-3.09841
0.0290491
-3.77452
0.0290031
-4.60342
0.0270474
-5.62179
0.0227853
-6.87175
0.0154763
-0.3645
-0.373594
0.0228083
-0.397896
0.0227638
-0.439928
0.0216351
-0.500248
0.0205804
-0.581283
0.0196386
-0.684891
0.0194439
-0.815262
0.0198895
-0.977383
0.020864
-1.17779
0.022316
-1.42463
0.0237645
-1.72658
0.0251328
-2.0953
0.0264807
-2.54673
0.0275338
-3.09888
0.0284776
-3.77393
0.0285115
-4.60104
0.0267033
-5.61663
0.0225661
-6.86307
0.0153961
-0.365863
-0.374891
0.0227271
-0.399336
0.0219512
-0.441653
0.0202834
-0.5021
0.0193612
-0.583218
0.0186979
-0.686925
0.0187489
-0.817359
0.0193317
-0.979507
0.0203473
-1.1799
0.0217837
-1.42663
0.0232139
-1.72833
0.024557
-2.09666
0.02589
-2.54743
0.02697
-3.09867
0.0279589
-3.77241
0.028057
-4.59789
0.0263718
-5.61105
0.0223512
-6.85405
0.0153133
-0.367102
-0.376188
0.0227519
-0.400953
0.0216623
-0.443363
0.0199641
-0.503936
0.0190637
-0.585142
0.0182368
-0.688872
0.0181586
-0.819338
0.0186969
-0.981483
0.0197215
-1.18181
0.0211662
-1.42837
0.0226091
-1.72979
0.0239447
-2.09763
0.0252925
-2.5477
0.0263978
-3.09795
0.0274403
-3.77032
0.0276169
-4.59359
0.0260596
-5.60395
0.0221427
-6.84283
0.015179
-0.368347
-0.377441
0.0226779
-0.40235
0.0209299
-0.44501
0.0188261
-0.505691
0.018043
-0.586959
0.0174633
-0.690755
0.0175897
-0.821234
0.0182404
-0.983338
0.0192808
-1.18357
0.0206937
-1.42993
0.022097
-1.73098
0.023399
-2.09827
0.0247538
-2.5475
0.0258804
-3.09655
0.0269619
-3.7672
0.0271958
-4.58824
0.0257397
-5.59531
0.021929
-6.8301
0.0150461
-0.369459
-0.378747
0.0226508
-0.404011
0.0206759
-0.446752
0.0186177
-0.507545
0.0178886
-0.588882
0.0171511
-0.692688
0.017124
-0.823182
0.0176978
-0.985252
0.018714
-1.18537
0.0201154
-1.43151
0.0215079
-1.73216
0.0228105
-2.09884
0.0241891
-2.54714
0.0253441
-3.09484
0.0264774
-3.76361
0.0267766
-4.58184
0.0254224
-5.58479
0.0217268
-6.81481
0.0149425
-0.370762
-0.380135
0.0226449
-0.405556
0.0201088
-0.448521
0.0176991
-0.509426
0.0170387
-0.590834
0.0164853
-0.694713
0.0166183
-0.825225
0.0172628
-0.987264
0.0182736
-1.18731
0.0196361
-1.43324
0.0209857
-1.73351
0.0222667
-2.09961
0.0236644
-2.54697
0.0248525
-3.09328
0.0260314
-3.75994
0.0263727
-4.57511
0.025098
-5.57385
0.0215114
-6.79783
0.014828
-0.371949
-0.381608
0.022668
-0.407381
0.0199752
-0.450401
0.0175757
-0.511438
0.0169549
-0.592935
0.0162202
-0.696845
0.0161872
-0.827399
0.0167276
-0.989466
0.0176966
-1.1895
0.0190429
-1.43534
0.0203913
-1.73536
0.0216847
-2.101
0.0231289
-2.54753
0.0243524
-3.09248
0.0255884
-3.75701
0.0259746
-4.56881
0.0247779
-5.56253
0.0213144
-6.77981
0.014723
-0.373359
-0.383178
0.022789
-0.409053
0.0196102
-0.452278
0.0167585
-0.513416
0.0161766
-0.594993
0.0155571
-0.699006
0.0156498
-0.829649
0.0162391
-0.991792
0.017209
-1.19191
0.0185298
-1.43778
0.0198566
-1.73771
0.021158
-2.10308
0.0226443
-2.54902
0.023899
-3.09292
0.0251899
-3.75557
0.0256099
-4.56419
0.0244591
-5.55288
0.0210975
-6.76262
0.0146022
-0.374533
-0.384724
0.0228773
-0.410824
0.0195503
-0.454212
0.0165466
-0.515492
0.0160584
-0.597143
0.0152465
-0.701232
0.0151537
-0.831986
0.0156398
-0.994268
0.0165791
-1.19454
0.0179086
-1.44054
0.019279
-1.74053
0.020632
-2.10581
0.0221754
-2.5514
0.0234508
-3.09447
0.0248005
-3.75553
0.0252749
-4.56136
0.0241613
-5.5452
0.0208922
-6.74789
0.0144988
-0.375714
-0.386166
0.0230369
-0.412453
0.0191638
-0.455953
0.0156623
-0.517335
0.0152063
-0.59904
0.0145047
-0.703265
0.0145185
-0.834132
0.015024
-0.996578
0.0160108
-1.19705
0.0174031
-1.4432
0.0188194
-1.74324
0.0201822
-2.10852
0.0217625
-2.55395
0.0230478
-3.09658
0.0244479
-3.75651
0.0249758
-4.5601
0.0238775
-5.53993
0.0206712
-6.73585
0.0144066
-0.376347
-0.387181
0.0229921
-0.413793
0.0188389
-0.457271
0.0152758
-0.518683
0.0148959
-0.600403
0.0140797
-0.704615
0.0139685
-0.835574
0.0144272
-0.998155
0.0154576
-1.19875
0.0169086
-1.44496
0.0183764
-1.745
0.0197585
-2.11021
0.0213792
-2.55544
0.0226641
-3.09765
0.0241085
-3.75665
0.0246928
-4.55871
0.0236107
-5.5355
0.0204635
-6.72637
0.014503
-0.376736
-0.387656
0.0228197
-0.414226
0.0180919
-0.457711
0.0142073
-0.51909
0.0138555
-0.600741
0.0132403
-0.704872
0.01329
-0.835785
0.013942
-0.998259
0.0150785
-1.19869
0.0165724
-1.44466
0.0180538
-1.74437
0.0194156
-2.10922
0.0210498
-2.55403
0.0223221
-3.09571
0.0238019
-3.75387
0.0244202
-4.55463
0.0233563
-5.52954
0.0202464
-6.7165
0.0144844
-0.376577
-0.387577
0.0220977
-0.414097
0.0172332
-0.457356
0.0134376
-0.518617
0.0131878
-0.600112
0.0127408
-0.704012
0.0128362
-0.83458
0.0135501
-0.996582
0.0147416
-1.1964
0.0162614
-1.4416
0.0177482
-1.74041
0.0190984
-2.1042
0.0207447
-2.54785
0.022011
-3.08821
0.0235071
-3.74494
0.0241345
-4.54405
0.0231166
-5.517
0.0200712
-6.70179
0.0144092
-0.37618
-0.38711
0.0209621
-0.413521
0.0159678
-0.456608
0.0118935
-0.517691
0.0117167
-0.598908
0.0118565
-0.702478
0.0124516
-0.832452
0.0134003
-0.993635
0.0146377
-1.19242
0.0161192
-1.43629
0.0175411
-1.73345
0.0188732
-2.0952
0.0203884
-2.53648
0.021765
-3.07427
0.0231376
-3.72836
0.023721
-4.52431
0.0228782
-5.49374
0.019934
-6.67487
0.0143237
-0.375691
-0.386591
0.0192497
-0.412821
0.0148588
-0.45585
0.0112483
-0.516914
0.011513
-0.597902
0.0119229
-0.701074
0.0126277
-0.830526
0.0135288
-0.990974
0.0146811
-1.18876
0.0160563
-1.43121
0.0174067
-1.7263
0.0187689
-2.08553
0.020171
-2.52289
0.0216474
-3.05631
0.0228998
-3.70576
0.023479
-4.49606
0.0227225
-5.45848
0.0198806
-6.63238
0.0143183
-0.377196
-0.387229
0.0180132
-0.413165
0.0141758
-0.456098
0.0107892
-0.516926
0.0114662
-0.597648
0.012302
-0.700359
0.0132463
-0.829098
0.0141258
-0.988631
0.0150921
-1.18528
0.0162304
-1.4264
0.0174681
-1.71987
0.0188086
-2.07688
0.0201693
-2.51209
0.0215903
-3.0419
0.022867
-3.68523
0.0234785
-4.46856
0.0227276
-5.42168
0.0199923
-6.58188
0.0144317
-0.381867
-0.390334
0.0181347
-0.41656
0.0149589
-0.46037
0.0121372
-0.521393
0.0127541
-0.602454
0.0136173
-0.705367
0.0140776
-0.834262
0.014637
-0.993869
0.0154434
-1.19052
0.016527
-1.43113
0.017688
-1.72309
0.018996
-2.07764
0.0203693
-2.50853
0.0217565
-3.03312
0.0230776
-3.67164
0.0236936
-4.44767
0.0229982
-5.39124
0.020377
-6.54083
0.0146792
-0.388908
-0.399524
0.0217396
-0.42624
0.0179499
-0.470546
0.015087
-0.532956
0.0150027
-0.615499
0.0147685
-0.720565
0.0149012
-0.852308
0.0152539
-1.01548
0.0160406
-1.21645
0.0172577
-1.46232
0.0184781
-1.7605
0.0194395
-2.12226
0.0209177
-2.56059
0.0220777
-3.09184
0.0235169
-3.7339
0.0241858
-4.5103
0.0235294
-5.44931
0.0210513
-6.58778
0.0154646
-0.396747
-0.411155
0.0290751
-0.439232
0.024097
-0.484499
0.0192309
-0.548518
0.0174158
-0.633397
0.0159755
-0.741576
0.0155647
-0.877313
0.0156873
-1.04545
0.0164916
-1.25243
0.0177864
-1.50559
0.0191436
-1.81294
0.0203
-2.18548
0.0219507
-2.63682
0.0232511
-3.18261
0.0247607
-3.84027
0.0255641
-4.63308
0.0249763
-5.58748
0.0224005
-6.73518
0.0171075
-0.399061
-0.413966
0.0390188
-0.44229
0.0300289
-0.487633
0.0209146
-0.552042
0.0166713
-0.637586
0.0146983
-0.746892
0.0144202
-0.884131
0.0148743
-1.05409
0.0158368
-1.26346
0.0172393
-1.51978
0.0187226
-1.83107
0.0200312
-2.20858
0.0218321
-2.66697
0.0232629
-3.22371
0.0247774
-3.89676
0.0256272
-4.70877
0.02515
-5.68637
0.0225703
-6.86038
0.0170703
-0.364989
-0.375331
0.0321367
-0.399026
0.0180397
-0.440517
0.0098842
-0.499024
0.00528827
-0.576444
0.00340493
-0.674895
0.00249397
-0.798129
0.00199845
-0.950517
0.00153694
-1.13786
0.00139738
-1.36655
0.00128182
-1.64367
0.00112884
-1.98069
0.00108958
-2.38901
0.00128339
-2.8854
0.001566
-3.48816
0.00180159
-4.21726
0.00201879
-5.09751
0.00194997
-6.16429
0.00169706
-0.395282
-0.40763
0.00874716
-0.438581
0.00302751
-0.486524
0.000463775
-0.552939
-2.17506e-05
-0.639458
-0.000167364
-0.748844
-0.000397314
-0.885401
-0.000520265
-1.05468
-0.00066892
-1.26263
-0.000678151
-1.51651
-0.00080936
-1.82425
-0.000917727
-2.19668
-0.000959412
-2.64659
-0.000863646
-3.18942
-0.000643251
-3.84314
-0.000470471
-4.63083
-0.000590443
-5.57897
-0.000759886
-6.72329
-0.00116011
-0.413416
-0.440309
-0.00911783
-0.477515
-0.00484573
-0.532413
-0.00269768
-0.605665
-0.0016869
-0.701261
-0.00121644
-0.822439
-0.000999342
-0.974003
-0.000855568
-1.16227
-0.000553646
-1.39417
-0.000400427
-1.67893
-0.000445457
-2.02598
-0.000619468
-2.44598
-0.000780783
-2.95468
-0.000941559
-3.56534
-0.000926046
-4.29142
-0.000910751
-5.16107
-0.00124219
-6.19645
-0.00151684
-7.42608
-0.00193283
-0.427968
-0.459976
-0.0129069
-0.498195
-0.00693514
-0.554349
-0.00329167
-0.630976
-0.00191081
-0.73119
-0.00111538
-0.858929
-0.000627488
-1.01958
-0.00025428
-1.21904
-5.69985e-06
-1.46566
0.000160911
-1.77
0.000190701
-2.14451
5.32905e-05
-2.6003
-0.000212603
-3.15639
-0.000552187
-3.82708
-0.000718817
-4.62278
-0.000859402
-5.57393
-0.00131066
-6.69952
-0.0016765
-8.00755
-0.00190156
-0.434432
-0.463898
-0.00719851
-0.501067
-0.00413256
-0.556465
-0.00242764
-0.633459
-0.00144547
-0.734929
-0.000790234
-0.864444
-0.000397134
-1.02739
-9.92391e-05
-1.23022
0.000263698
-1.48161
0.000626574
-1.79244
0.000755912
-2.17833
0.000533708
-2.65137
0.000241868
-3.23304
-3.53945e-05
-3.94271
-0.000203946
-4.79675
-0.000420643
-5.83482
-0.000578424
-7.10051
-0.000771052
-8.63573
-0.000961519
-0.344197
-0.353912
-0.00468173
-0.380684
-0.00762193
-0.421762
-0.00858016
-0.478649
-0.00852739
-0.553688
-0.00913667
-0.648795
-0.010125
-0.76766
-0.0115622
-0.913474
-0.0133374
-1.09126
-0.0149777
-1.30685
-0.0167899
-1.57501
-0.0207034
-1.90045
-0.0236469
-2.2927
-0.0260917
-2.77085
-0.0267492
-3.35419
-0.0285537
-4.06219
-0.0271743
-4.91593
-0.024193
-5.94175
-0.0173503
-0.375281
-0.386224
-0.00579925
-0.414598
-0.00628766
-0.458056
-0.00735821
-0.518988
-0.00798963
-0.599266
-0.00899382
-0.701477
-0.0102011
-0.829343
-0.0117219
-0.987299
-0.0134682
-1.18099
-0.0151961
-1.41543
-0.0172881
-1.70687
-0.0202972
-2.0636
-0.023034
-2.48753
-0.0255141
-3.00549
-0.0272727
-3.63912
-0.0285163
-4.40504
-0.0281068
-5.32827
-0.0249926
-6.44615
-0.017153
-0.395076
-0.406225
-0.00275264
-0.43465
-0.00705315
-0.480766
-0.00837176
-0.545387
-0.00873493
-0.630561
-0.00966093
-0.739246
-0.0107901
-0.875714
-0.0123487
-1.04507
-0.0142151
-1.2542
-0.0160257
-1.51117
-0.018368
-1.82998
-0.0212644
-2.21159
-0.0240762
-2.66975
-0.0264082
-3.2359
-0.0279787
-3.93835
-0.0289039
-4.78114
-0.0283551
-5.82083
-0.025058
-7.10738
-0.0168439
-0.391001
-0.406372
-0.00363668
-0.43518
-0.00610084
-0.480853
-0.00731649
-0.545021
-0.00806477
-0.629787
-0.00933069
-0.737951
-0.0106778
-0.873776
-0.0122792
-1.0425
-0.0140993
-1.25172
-0.016003
-1.50944
-0.0184326
-1.82763
-0.0208149
-2.20677
-0.0233369
-2.65746
-0.0258462
-3.20959
-0.0276113
-3.88163
-0.0287151
-4.69994
-0.0282834
-5.70069
-0.0250476
-6.92312
-0.0164909
-0.396215
-0.411418
-0.000718823
-0.440149
-0.00661825
-0.486397
-0.00842623
-0.551791
-0.00888331
-0.638097
-0.00996032
-0.74828
-0.0112031
-0.886797
-0.0128311
-1.05909
-0.0147841
-1.27255
-0.016795
-1.53627
-0.019375
-1.86425
-0.0215168
-2.2542
-0.0239038
-2.72237
-0.0269264
-3.29766
-0.0283977
-4.00259
-0.029134
-4.86353
-0.0285187
-5.92052
-0.0251457
-7.22187
-0.0164719
-0.390582
-0.407507
-0.00245763
-0.437212
-0.00560579
-0.483156
-0.00736379
-0.547681
-0.00827351
-0.633041
-0.0096644
-0.742009
-0.0111008
-0.878834
-0.0127822
-1.04879
-0.0147394
-1.25908
-0.0167942
-1.51696
-0.0192881
-1.83624
-0.021119
-2.21775
-0.0234552
-2.67377
-0.0266051
-3.23232
-0.0281658
-3.91354
-0.0291264
-4.74254
-0.0285765
-5.75466
-0.0251768
-6.99325
-0.0164005
-0.395555
-0.410952
0.000195521
-0.44045
-0.00613802
-0.487008
-0.00845037
-0.552506
-0.00913605
-0.639037
-0.0103205
-0.749612
-0.0116119
-0.888594
-0.0133356
-1.06148
-0.0155186
-1.27552
-0.0174329
-1.53945
-0.0203681
-1.86431
-0.0222104
-2.25215
-0.024833
-2.72394
-0.0278179
-3.30275
-0.0289545
-4.01374
-0.0297419
-4.88333
-0.0289687
-5.9504
-0.0253102
-7.26477
-0.016416
-0.38929
-0.40618
-0.0018222
-0.436063
-0.00528145
-0.482124
-0.00736711
-0.546626
-0.00847647
-0.63179
-0.00998085
-0.740501
-0.0115267
-0.877126
-0.0134331
-1.04685
-0.015682
-1.25592
-0.0174837
-1.51457
-0.0196968
-1.8287
-0.0229079
-2.20843
-0.0252792
-2.6689
-0.0275999
-3.23264
-0.0288228
-3.91852
-0.0299244
-4.75492
-0.0291759
-5.78004
-0.0253767
-7.04044
-0.0164008
-0.394272
-0.40928
0.000999181
-0.438783
-0.00588296
-0.485359
-0.00876062
-0.550827
-0.00923911
-0.637038
-0.0105219
-0.747396
-0.0119742
-0.886611
-0.0141646
-1.06067
-0.0162118
-1.27715
-0.0184102
-1.53959
-0.0210745
-1.85837
-0.0243852
-2.24658
-0.0267906
-2.72185
-0.029047
-3.30498
-0.0297837
-4.02002
-0.0306794
-4.89478
-0.0296851
-5.97043
-0.0254677
-7.30086
-0.0164944
-0.386204
-0.403575
-0.00132659
-0.432972
-0.00500669
-0.479159
-0.00799142
-0.542603
-0.00832944
-0.626422
-0.0102952
-0.73371
-0.0122263
-0.870415
-0.0142926
-1.04147
-0.0163473
-1.2525
-0.0186921
-1.50731
-0.0216008
-1.81837
-0.0246041
-2.19871
-0.0267529
-2.66227
-0.0290154
-3.22813
-0.0299456
-3.91813
-0.0310053
-4.76161
-0.0300042
-5.79972
-0.0255978
-7.07921
-0.0165328
-0.392114
-0.409266
0.00160845
-0.43753
-0.0053922
-0.486889
-0.0096963
-0.55017
-0.00914654
-0.63565
-0.0119936
-0.745339
-0.013239
-0.885365
-0.0151775
-1.05984
-0.0175028
-1.2743
-0.0201066
-1.53493
-0.0235632
-1.85379
-0.0263085
-2.2431
-0.0282168
-2.7202
-0.0307477
-3.30544
-0.0311833
-4.02378
-0.0319162
-4.90344
-0.0306223
-5.98715
-0.0256946
-7.33094
-0.0166832
-0.378642
-0.403038
-0.000736856
-0.428917
-0.00606922
-0.48172
-0.00700719
-0.538272
-0.0100111
-0.622795
-0.0111245
-0.729209
-0.013552
-0.865457
-0.0155116
-1.03512
-0.0178843
-1.24306
-0.0205808
-1.49739
-0.0238123
-1.80846
-0.026539
-2.18936
-0.0286754
-2.65294
-0.0308653
-3.22043
-0.0315293
-3.91468
-0.0324013
-4.76562
-0.0310695
-5.8165
-0.0260112
-7.11424
-0.0167385
-0.388601
-0.405854
0.00322531
-0.43509
-0.00662347
-0.484545
-0.00924304
-0.546778
-0.0110266
-0.632309
-0.012848
-0.742581
-0.014455
-0.882068
-0.0166296
-1.05516
-0.019315
-1.26773
-0.0221118
-1.52898
-0.0250411
-1.84871
-0.0275934
-2.23888
-0.0299455
-2.71747
-0.0328831
-3.30525
-0.0330383
-4.02691
-0.0334304
-4.91204
-0.0318144
-6.004
-0.0264137
-7.35882
-0.016901
-0.374989
-0.39429
-0.000903169
-0.426302
-0.00512859
-0.472488
-0.00815498
-0.53306
-0.0105973
-0.616077
-0.012594
-0.722867
-0.0147366
-0.857806
-0.0171351
-1.02563
-0.0198271
-1.23232
-0.0225575
-1.48604
-0.0254293
-1.79722
-0.027934
-2.17824
-0.0302854
-2.64222
-0.0331108
-3.21193
-0.0335581
-3.91028
-0.0340001
-4.76887
-0.0324201
-5.83137
-0.0268709
-7.14811
-0.0169899
-0.38641
-0.399338
0.0040627
-0.430728
-0.00554346
-0.477265
-0.0102251
-0.542111
-0.0115238
-0.628021
-0.0136147
-0.738326
-0.0158018
-0.877203
-0.0184545
-1.04945
-0.0214641
-1.26204
-0.024345
-1.52342
-0.027423
-1.84383
-0.0301004
-2.23486
-0.032637
-2.71616
-0.0354979
-3.30634
-0.0352453
-4.0322
-0.0349314
-4.92274
-0.0332875
-6.02179
-0.027408
-7.38718
-0.0171917
-0.370476
-0.388517
-0.00145012
-0.418695
-0.00515645
-0.463998
-0.00847226
-0.526428
-0.0106127
-0.609219
-0.0135403
-0.715541
-0.0162818
-0.849538
-0.0190778
-1.01653
-0.0220328
-1.22303
-0.0249046
-1.47672
-0.0280009
-1.78779
-0.0305924
-2.16898
-0.0331187
-2.63355
-0.0358063
-3.20513
-0.0359095
-3.90755
-0.0357153
-4.77351
-0.0340492
-5.8474
-0.0280011
-7.18243
-0.0173283
-0.383584
-0.394819
0.00577015
-0.424618
-0.00557605
-0.47163
-0.0108162
-0.536912
-0.0120717
-0.623391
-0.0146578
-0.733752
-0.0174539
-0.872438
-0.020601
-1.04469
-0.0239136
-1.25759
-0.0270017
-1.51994
-0.0303776
-1.84168
-0.0332562
-2.23459
-0.0358273
-2.71835
-0.0386125
-3.31187
-0.0379983
-4.04181
-0.0372281
-4.93765
-0.0349934
-6.04316
-0.0286312
-7.41719
-0.0175752
-0.364951
-0.384029
-0.00199007
-0.413132
-0.00528537
-0.457831
-0.00874371
-0.520637
-0.011343
-0.603482
-0.0147163
-0.709551
-0.0179566
-0.84307
-0.0212464
-1.00955
-0.0245875
-1.21543
-0.0276791
-1.46848
-0.0310257
-1.77932
-0.0339018
-2.16019
-0.0375062
-2.62627
-0.0389997
-3.20049
-0.0388723
-3.90741
-0.0383145
-4.78076
-0.0358498
-5.86549
-0.0293009
-7.21753
-0.0177673
-0.379966
-0.391143
0.00869072
-0.420512
-0.0052224
-0.467162
-0.0116974
-0.532549
-0.0132287
-0.619304
-0.0160071
-0.73004
-0.0192133
-0.869153
-0.022897
-1.04196
-0.0266658
-1.25588
-0.0302066
-1.5195
-0.0347214
-1.8424
-0.0381436
-2.23805
-0.0396366
-2.72434
-0.0422809
-3.3211
-0.0413539
-4.05521
-0.040159
-4.95685
-0.0367388
-6.06849
-0.0299668
-7.44908
-0.0180888
-0.358598
-0.378011
-0.00330162
-0.407334
-0.00551488
-0.45172
-0.00912099
-0.513968
-0.0124485
-0.59628
-0.0161781
-0.70192
-0.0198827
-0.835104
-0.0236461
-1.0012
-0.027499
-1.20648
-0.0309458
-1.45919
-0.0345219
-1.77013
-0.0377631
-2.15133
-0.041434
-2.61909
-0.0418192
-3.1962
-0.0424732
-3.90848
-0.0415038
-4.78956
-0.037861
-5.88529
-0.0305698
-7.25369
-0.0184535
-0.37494
-0.386601
0.0129074
-0.415907
-0.00435807
-0.462395
-0.0129121
-0.527714
-0.0149457
-0.614598
-0.0180136
-0.725719
-0.0214716
-0.86543
-0.0256042
-1.03918
-0.0298348
-1.2542
-0.0340285
-1.51918
-0.039085
-1.84426
-0.0428041
-2.24216
-0.0440402
-2.7318
-0.0467638
-3.33336
-0.0455084
-4.07218
-0.0436113
-4.97914
-0.039537
-6.09728
-0.0314966
-7.48426
-0.0191061
-0.35129
-0.3698
-0.00608694
-0.399166
-0.00654008
-0.443528
-0.00973255
-0.505358
-0.0140471
-0.587121
-0.0181493
-0.692244
-0.0224156
-0.824988
-0.0267753
-0.990567
-0.0312914
-1.19563
-0.0349069
-1.44834
-0.0384826
-1.75926
-0.0421628
-2.14195
-0.0461096
-2.61178
-0.0462726
-3.19253
-0.0469815
-3.90941
-0.0452178
-4.79889
-0.0409018
-5.90718
-0.0322778
-7.29335
-0.0194678
-0.368243
-0.380524
0.0172389
-0.409834
-0.00354174
-0.456025
-0.0146399
-0.521252
-0.017516
-0.60813
-0.0214375
-0.719393
-0.0253735
-0.859433
-0.0298663
-1.03399
-0.034185
-1.25006
-0.0386301
-1.51687
-0.0440252
-1.84462
-0.0481225
-2.24522
-0.0505123
-2.73872
-0.0524086
-3.34457
-0.0505823
-4.09053
-0.0478359
-5.0045
-0.0430075
-6.13043
-0.034005
-7.52636
-0.0198668
-0.34243
-0.359703
-0.0119307
-0.388611
-0.00942204
-0.432794
-0.0110867
-0.494317
-0.0160257
-0.575573
-0.020539
-0.680107
-0.0256293
-0.812299
-0.0305807
-0.97752
-0.0354504
-1.18259
-0.0394009
-1.4356
-0.0432738
-1.74736
-0.0471952
-2.13179
-0.0513672
-2.60454
-0.0518591
-3.18937
-0.0522843
-3.91274
-0.0498505
-4.81092
-0.0443714
-5.9332
-0.0347911
-7.33649
-0.0201312
-0.359117
-0.371916
0.0203749
-0.401878
-0.00332989
-0.447988
-0.0168272
-0.512887
-0.0203254
-0.599503
-0.0249545
-0.710712
-0.0293689
-0.850958
-0.0343975
-1.02587
-0.039275
-1.24282
-0.0440308
-1.51135
-0.0497297
-1.84182
-0.0543654
-2.24644
-0.0559267
-2.74502
-0.0593268
-3.3579
-0.0566727
-4.11152
-0.0529056
-5.03503
-0.0475324
-6.16845
-0.03646
-7.5649
-0.020024
-0.333539
-0.350213
-0.0211527
-0.378224
-0.0135994
-0.422113
-0.0130164
-0.483462
-0.0186244
-0.564405
-0.023285
-0.668638
-0.0290898
-0.800681
-0.0344134
-0.966157
-0.0397796
-1.17175
-0.0448151
-1.42563
-0.0491676
-1.73892
-0.0532125
-2.12677
-0.058627
-2.6036
-0.0588765
-3.19345
-0.0584675
-3.92284
-0.0553212
-4.82757
-0.0495223
-5.95571
-0.0372379
-7.35681
-0.0202439
-0.348129
-0.361475
0.0232636
-0.392181
-0.00288097
-0.438394
-0.0185238
-0.503138
-0.0228271
-0.589417
-0.0287449
-0.700401
-0.0340932
-0.840628
-0.0402465
-1.0158
-0.0464585
-1.23352
-0.052408
-1.50364
-0.057894
-1.83703
-0.0627324
-2.24497
-0.0653603
-2.74979
-0.0677913
-3.36857
-0.0647951
-4.12853
-0.0594356
-5.05805
-0.0523925
-6.18691
-0.0384831
-7.56488
-0.0208682
-0.322879
-0.338729
-0.0310135
-0.365295
-0.015467
-0.408143
-0.0121617
-0.468294
-0.0202169
-0.548036
-0.0266268
-0.651031
-0.0336793
-0.781718
-0.0400755
-0.945842
-0.0464649
-1.15032
-0.0524093
-1.40332
-0.056853
-1.71564
-0.0611672
-2.1018
-0.0666388
-2.57354
-0.0659396
-3.1585
-0.0660831
-3.88201
-0.0619999
-4.77987
-0.0534139
-5.90466
-0.0397175
-7.31974
-0.0220128
-0.327806
-0.340433
0.0284959
-0.370098
-0.00305287
-0.414584
-0.0235932
-0.477147
-0.0281484
-0.560769
-0.0351146
-0.668619
-0.0405292
-0.805321
-0.0471277
-0.976558
-0.0537891
-1.18981
-0.0601503
-1.45498
-0.0664747
-1.78309
-0.0714964
-2.18705
-0.0746556
-2.68896
-0.0758581
-3.30776
-0.0732951
-4.07109
-0.0671669
-5.00853
-0.0569137
-6.15963
-0.0418559
-7.5747
-0.0221734
0.034671
-0.038878
0.0314491
-0.0297833
0.0226094
-0.0273398
0.0277198
-0.0196353
0.0292318
-0.0177901
0.032863
-0.0176896
0.0358223
-0.0180114
0.0386408
-0.01856
0.0414263
-0.0183043
0.0440987
-0.0181441
0.0465795
-0.0156019
0.0486039
-0.0142286
0.050056
-0.0104345
0.0505029
-0.00687502
0.0493736
-0.00686605
0.0460008
-0.00579344
0.0395914
-0.00505431
0.0298954
-0.0266108
0.0173203
0.0278248
-0.323257
-0.0389109
-0.340916
0.0314429
-0.0274587
-0.368491
0.0232928
-0.024409
-0.409744
0.0293789
-0.018986
-0.468929
0.0295638
-0.016605
-0.548208
0.0323711
-0.0168987
-0.651679
0.0350421
-0.0174153
-0.783335
0.0373642
-0.0177588
-0.948815
0.0397928
-0.0173787
-1.15472
0.0423643
-0.0173217
-1.41092
0.0447164
-0.0148883
-1.72705
0.0466514
-0.0137102
-2.11886
0.0481136
-0.0101846
-2.60146
0.0486466
-0.00697207
-3.1935
0.0476594
-0.00728857
-3.91875
0.0444925
-0.00633159
-4.80669
0.038382
-0.00536686
-5.89764
0.0292482
-0.026481
-7.25955
0.0172289
0.0259301
-0.327048
-0.0370773
-0.34399
0.0298167
-0.0263282
-0.37157
0.0229259
-0.0237859
-0.412582
0.02815
-0.0183062
-0.472169
0.0285963
-0.0164236
-0.551456
0.0310924
-0.0164463
-0.654968
0.0335917
-0.0169195
-0.78664
0.0359325
-0.0173744
-0.951999
0.0382362
-0.0171486
-1.15761
0.0406355
-0.0171372
-1.41333
0.0429249
-0.0150384
-1.72876
0.044857
-0.0140721
-2.11936
0.0462721
-0.0110128
-2.60038
0.0468781
-0.00839065
-3.19032
0.0460009
-0.00889692
-3.91276
0.0430448
-0.00812636
-4.79771
0.0373134
-0.00752554
-5.88541
0.028604
-0.028836
-7.24277
0.0169947
0.0210484
-0.330634
-0.0361703
-0.347907
0.0305227
-0.0247824
-0.374779
0.0240997
-0.0210178
-0.415488
0.0289047
-0.0171144
-0.475033
0.0288107
-0.0152626
-0.554557
0.0305698
-0.0156877
-0.658046
0.0325664
-0.0161947
-0.789657
0.0345277
-0.0164779
-0.954911
0.0366644
-0.0160741
-1.16026
0.0389748
-0.0159749
-1.4155
0.0411799
-0.013712
-1.73019
0.0430695
-0.0126911
-2.11965
0.0445014
-0.00950946
-2.59905
0.0451632
-0.00679386
-3.18682
0.0444095
-0.00720048
-3.90633
0.0417106
-0.00628553
-4.78809
0.0363175
-0.0055642
-5.87237
0.0279841
-0.027283
-7.22518
0.0167546
0.0189027
-0.334028
-0.0339395
-0.350529
0.0289281
-0.0234012
-0.377231
0.0238215
-0.020467
-0.4182
0.0277693
-0.0165739
-0.477899
0.0276163
-0.0149589
-0.557528
0.0292466
-0.0150566
-0.661261
0.0312247
-0.0154401
-0.792913
0.0331606
-0.0157248
-0.958046
0.0351813
-0.0153543
-1.1632
0.0373964
-0.0151244
-1.41808
0.0395475
-0.0128794
-1.73217
0.041409
-0.0117361
-2.12065
0.042841
-0.0085383
-2.59865
0.0435582
-0.00582013
-3.18446
0.0429235
-0.00597696
-3.90154
0.0404374
-0.0046823
-4.78025
0.0353842