/*--------------------------------*- C++ -*----------------------------------*\
| =========                 |                                                 |
| \\      /  F ield         | OpenFOAM: The Open Source CFD Toolbox           |
|  \\    /   O peration     | Version:  2.1.x                                 |
|   \\  /    A nd           | Web:      www.OpenFOAM.org                      |
|    \\/     M anipulation  |                                                 |
\*---------------------------------------------------------------------------*/
FoamFile
{
    version     2.0;
    format      ascii;
    class       volScalarField;
    location    "1";
    object      rAU;
}
// * * * * * * * * * * * * * * * * * * * * * * * * * * * * * * * * * * * * * //

dimensions      [0 0 1 0 0 0 0];

internalField   nonuniform List<scalar> 
114040
(
0.00180718
0.00180303
0.00180318
0.00180397
0.00180465
0.00180438
0.00180334
0.00180184
0.00179993
0.00179757
0.00179454
0.00179073
0.00178597
0.00177971
0.00177144
0.00176042
0.00174515
0.00172321
0.00169032
0.00199106
0.00199019
0.00198888
0.00198805
0.00198789
0.00198799
0.00198828
0.00198856
0.00198879
0.001989
0.00198921
0.00198943
0.00198968
0.00198998
0.00199037
0.00199095
0.00199189
0.00199353
0.00199678
0.00199069
0.00198983
0.00198858
0.00198777
0.0019876
0.00198771
0.00198798
0.00198826
0.00198851
0.00198874
0.00198896
0.00198921
0.00198949
0.00198982
0.00199026
0.00199091
0.00199192
0.00199364
0.0019969
0.00199026
0.00198933
0.00198812
0.00198741
0.00198732
0.00198746
0.00198774
0.00198801
0.00198825
0.00198848
0.00198873
0.00198899
0.0019893
0.00198968
0.00199017
0.00199088
0.00199197
0.00199376
0.00199702
0.00198987
0.00198896
0.00198783
0.00198715
0.00198705
0.00198717
0.00198744
0.00198772
0.00198797
0.00198822
0.00198849
0.00198878
0.00198913
0.00198954
0.00199009
0.00199087
0.00199203
0.00199388
0.00199713
0.00198942
0.00198848
0.00198738
0.00198678
0.00198675
0.00198691
0.00198719
0.00198746
0.00198772
0.00198798
0.00198826
0.00198858
0.00198896
0.00198942
0.00199002
0.00199086
0.0019921
0.00199401
0.00199725
0.00198903
0.00198811
0.0019871
0.00198653
0.00198649
0.00198662
0.00198689
0.00198718
0.00198745
0.00198773
0.00198803
0.00198839
0.0019888
0.00198931
0.00198997
0.00199088
0.00199218
0.00199414
0.00199735
0.00198858
0.00198765
0.00198667
0.00198617
0.00198619
0.00198636
0.00198664
0.00198693
0.00198721
0.0019875
0.00198783
0.00198821
0.00198867
0.00198922
0.00198994
0.0019909
0.00199227
0.00199428
0.00199746
0.0019882
0.00198729
0.0019864
0.00198594
0.00198593
0.00198609
0.00198636
0.00198666
0.00198695
0.00198727
0.00198763
0.00198805
0.00198854
0.00198915
0.00198992
0.00199095
0.00199238
0.00199443
0.00199756
0.00198775
0.00198687
0.001986
0.00198559
0.00198564
0.00198583
0.00198612
0.00198643
0.00198673
0.00198707
0.00198745
0.0019879
0.00198844
0.0019891
0.00198992
0.00199102
0.0019925
0.00199458
0.00199767
0.00198738
0.00198653
0.00198575
0.00198538
0.00198541
0.00198558
0.00198587
0.00198618
0.00198651
0.00198687
0.00198729
0.00198778
0.00198836
0.00198906
0.00198995
0.0019911
0.00199263
0.00199474
0.00199776
0.00198696
0.00198614
0.00198539
0.00198506
0.00198514
0.00198535
0.00198565
0.00198598
0.00198632
0.00198671
0.00198715
0.00198767
0.0019883
0.00198905
0.00198999
0.0019912
0.00199278
0.0019949
0.00199786
0.00198662
0.00198583
0.00198517
0.00198488
0.00198494
0.00198514
0.00198544
0.00198578
0.00198614
0.00198655
0.00198703
0.00198759
0.00198826
0.00198907
0.00199006
0.00199131
0.00199294
0.00199506
0.00199795
0.00198622
0.00198549
0.00198486
0.0019846
0.0019847
0.00198494
0.00198526
0.00198562
0.001986
0.00198644
0.00198694
0.00198754
0.00198826
0.00198911
0.00199014
0.00199145
0.0019931
0.00199523
0.00199804
0.00198591
0.00198523
0.00198468
0.00198445
0.00198454
0.00198477
0.0019851
0.00198547
0.00198588
0.00198634
0.00198688
0.00198752
0.00198827
0.00198917
0.00199025
0.0019916
0.00199328
0.00199539
0.00199813
0.00198557
0.00198496
0.00198442
0.00198423
0.00198436
0.00198463
0.00198498
0.00198537
0.0019858
0.00198628
0.00198685
0.00198752
0.00198832
0.00198926
0.00199038
0.00199176
0.00199346
0.00199556
0.00199821
0.00198531
0.00198476
0.00198431
0.00198415
0.00198427
0.00198453
0.00198488
0.00198528
0.00198573
0.00198625
0.00198685
0.00198756
0.00198839
0.00198937
0.00199053
0.00199194
0.00199366
0.00199573
0.00199829
0.00198505
0.00198458
0.00198414
0.001984
0.00198416
0.00198446
0.00198484
0.00198526
0.00198573
0.00198627
0.0019869
0.00198764
0.0019885
0.00198952
0.00199071
0.00199214
0.00199386
0.0019959
0.00199837
0.00198487
0.00198447
0.0019841
0.00198401
0.00198417
0.00198445
0.00198483
0.00198526
0.00198575
0.00198631
0.00198697
0.00198774
0.00198865
0.00198969
0.00199091
0.00199236
0.00199407
0.00199608
0.00199845
0.00198471
0.0019844
0.00198404
0.00198397
0.00198415
0.00198448
0.00198487
0.00198532
0.00198583
0.00198641
0.0019871
0.0019879
0.00198883
0.0019899
0.00199114
0.00199259
0.00199429
0.00199625
0.00199852
0.00198464
0.00198441
0.00198412
0.00198409
0.00198427
0.00198457
0.00198497
0.00198542
0.00198595
0.00198656
0.00198727
0.00198809
0.00198905
0.00199014
0.00199139
0.00199285
0.00199452
0.00199643
0.0019986
0.00198458
0.00198447
0.00198418
0.00198416
0.00198436
0.0019847
0.00198512
0.0019856
0.00198614
0.00198676
0.00198749
0.00198834
0.00198931
0.00199041
0.00199167
0.00199312
0.00199476
0.00199661
0.00199867
0.00198462
0.00198462
0.00198438
0.00198439
0.00198459
0.00198492
0.00198533
0.00198581
0.00198637
0.00198701
0.00198776
0.00198862
0.00198961
0.00199072
0.00199197
0.0019934
0.00199501
0.00199679
0.00199874
0.00198471
0.00198482
0.00198458
0.0019846
0.00198481
0.00198517
0.00198561
0.00198611
0.00198668
0.00198733
0.00198809
0.00198896
0.00198995
0.00199106
0.0019923
0.00199371
0.00199527
0.00199697
0.00199881
0.00198488
0.00198511
0.00198492
0.00198497
0.00198518
0.00198553
0.00198596
0.00198646
0.00198704
0.0019877
0.00198847
0.00198934
0.00199033
0.00199143
0.00199265
0.00199402
0.00199553
0.00199715
0.00199887
0.00198511
0.00198547
0.00198528
0.00198532
0.00198555
0.00198593
0.00198638
0.0019869
0.00198748
0.00198814
0.00198891
0.00198977
0.00199075
0.00199183
0.00199302
0.00199435
0.00199579
0.00199733
0.00199894
0.00198543
0.00198593
0.00198578
0.00198585
0.00198608
0.00198645
0.00198689
0.0019874
0.00198798
0.00198864
0.00198939
0.00199025
0.0019912
0.00199225
0.00199341
0.00199469
0.00199606
0.0019975
0.001999
0.00198584
0.00198647
0.00198632
0.0019864
0.00198663
0.00198703
0.00198748
0.00198799
0.00198856
0.0019892
0.00198994
0.00199077
0.00199169
0.00199271
0.00199382
0.00199504
0.00199634
0.00199768
0.00199906
0.00198634
0.00198713
0.00198703
0.00198714
0.00198736
0.00198774
0.00198818
0.00198866
0.00198921
0.00198982
0.00199053
0.00199133
0.00199222
0.00199319
0.00199425
0.0019954
0.00199661
0.00199786
0.00199912
0.00198698
0.0019879
0.00198781
0.00198791
0.00198814
0.00198852
0.00198895
0.00198942
0.00198993
0.00199052
0.00199119
0.00199195
0.00199279
0.00199371
0.0019947
0.00199577
0.00199689
0.00199803
0.00199918
0.00198776
0.00198881
0.00198876
0.00198889
0.00198909
0.00198943
0.00198982
0.00199024
0.00199071
0.00199126
0.0019919
0.00199261
0.0019934
0.00199425
0.00199517
0.00199615
0.00199718
0.00199821
0.00199924
0.00198868
0.00198984
0.0019898
0.00198992
0.00199009
0.00199039
0.00199074
0.00199113
0.00199156
0.00199207
0.00199266
0.00199332
0.00199405
0.00199483
0.00199566
0.00199655
0.00199747
0.00199839
0.00199929
0.00198975
0.00199098
0.001991
0.00199114
0.00199124
0.00199144
0.00199171
0.00199205
0.00199245
0.00199292
0.00199346
0.00199407
0.00199472
0.00199542
0.00199617
0.00199696
0.00199777
0.00199856
0.00199935
0.00199104
0.00199221
0.00199219
0.00199226
0.00199229
0.00199243
0.00199267
0.00199299
0.00199336
0.00199379
0.00199428
0.00199483
0.00199541
0.00199603
0.00199668
0.00199736
0.00199806
0.00199874
0.00199941
0.00199245
0.00199343
0.00199339
0.00199339
0.00199333
0.0019934
0.0019936
0.0019939
0.00199426
0.00199466
0.00199511
0.00199559
0.0019961
0.00199663
0.00199718
0.00199776
0.00199835
0.00199891
0.00199946
0.0019936
0.00199456
0.00199439
0.00199431
0.00199422
0.0019943
0.00199453
0.00199483
0.00199517
0.00199553
0.00199592
0.00199633
0.00199676
0.00199721
0.00199767
0.00199814
0.00199862
0.00199907
0.00199951
0.00199455
0.00199551
0.0019952
0.00199509
0.00199509
0.00199525
0.0019955
0.00199578
0.00199606
0.00199636
0.00199671
0.00199706
0.00199742
0.00199778
0.00199814
0.00199851
0.00199887
0.00199921
0.00199955
0.00199414
0.00199626
0.00199586
0.00199587
0.00199604
0.0019963
0.00199656
0.00199682
0.00199704
0.00199728
0.00199755
0.00199782
0.00199809
0.00199835
0.00199861
0.00199887
0.00199913
0.00199935
0.00199958
0.00196298
0.00196869
0.00196875
0.00196918
0.00196956
0.00196983
0.00197007
0.00197032
0.0019706
0.00197091
0.0019713
0.00197176
0.00197227
0.00197285
0.0019735
0.00197424
0.00197511
0.00197611
0.00197727
0.00189258
0.00190483
0.00190657
0.00190839
0.00191016
0.00191199
0.00191408
0.00191647
0.00191916
0.00192221
0.00192569
0.00192966
0.00193409
0.00193898
0.00194427
0.0019499
0.00195579
0.00196182
0.00196782
0.00184917
0.0018585
0.00186139
0.00186446
0.001868
0.00187216
0.00187704
0.00188264
0.00188896
0.00189608
0.00190407
0.00191297
0.00192274
0.00193324
0.00194431
0.00195569
0.00196699
0.00197784
0.00198785
0.00178126
0.0017572
0.00177044
0.00178506
0.00180271
0.0018246
0.00185172
0.00188454
0.00189302
0.00190085
0.00190945
0.00191883
0.00192894
0.00193954
0.00195044
0.00196137
0.00197183
0.00198146
0.00198993
0.00147847
0.00149364
0.00152143
0.00154457
0.00156493
0.00158766
0.00161526
0.00164832
0.0016881
0.00173557
0.00179242
0.0018584
0.00189167
0.00190271
0.00191413
0.00192579
0.00193711
0.00194775
0.00195747
0.00129673
0.00135478
0.00137651
0.00139774
0.00141818
0.0014407
0.00146744
0.00149901
0.00153694
0.00158267
0.00163762
0.00170159
0.00178052
0.00187581
0.00193616
0.00193918
0.00194262
0.00194638
0.00195045
0.00164076
0.00166565
0.00168509
0.00171265
0.00174006
0.00177087
0.00180735
0.00185102
0.00190469
0.00196938
0.00203711
0.00203094
0.00202449
0.00201797
0.00201173
0.00200591
0.00200066
0.00199618
0.00199253
0.00159747
0.00164235
0.00165746
0.0016738
0.00169641
0.00171963
0.00174876
0.00178309
0.00182538
0.00187564
0.00193663
0.00200596
0.00200572
0.00200472
0.00200375
0.00200284
0.00200201
0.0020013
0.00200072
0.00163945
0.00164538
0.0016661
0.00169292
0.0017168
0.00174548
0.00177841
0.00181353
0.00185382
0.00190108
0.00195671
0.00201059
0.00200906
0.00200745
0.00200589
0.00200441
0.00200306
0.00200188
0.00200089
0.00163251
0.00165389
0.00166593
0.00168187
0.001704
0.00172574
0.00175342
0.00178549
0.00182401
0.001868
0.00191994
0.00198341
0.00201223
0.0020101
0.00200801
0.002006
0.00200414
0.00200247
0.00200106
0.00169469
0.00169236
0.00170511
0.00173093
0.00175326
0.00178034
0.00181107
0.00184681
0.00188699
0.00193423
0.00198888
0.00201779
0.0020153
0.00201269
0.00201007
0.00200755
0.00200519
0.00200307
0.00200124
0.00171995
0.00173669
0.00174273
0.0017563
0.00177773
0.00179819
0.00182458
0.00185541
0.00189282
0.00193668
0.00198957
0.002021
0.00201813
0.00201512
0.00201206
0.00200909
0.00200627
0.00200368
0.00200142
0.00179689
0.00179456
0.00180208
0.0018251
0.00184522
0.00187086
0.00189954
0.00193272
0.00197128
0.00201601
0.00202698
0.002024
0.00202081
0.00201742
0.00201397
0.00201057
0.00200731
0.00200429
0.0020016
0.00184863
0.00186441
0.00186634
0.00187695
0.0018972
0.0019166
0.00194146
0.00196969
0.00200384
0.00203264
0.00202983
0.00202667
0.00202321
0.00201954
0.00201579
0.00201204
0.00200837
0.00200492
0.0020018
0.00194035
0.00193758
0.00194491
0.00196543
0.00198404
0.00200829
0.00203409
0.00203992
0.00203772
0.0020352
0.00203229
0.002029
0.00202537
0.00202149
0.00201748
0.00201342
0.00200939
0.00200554
0.002002
0.00202482
0.00203002
0.00203057
0.00203146
0.00204638
0.00204521
0.00204369
0.00204189
0.00203973
0.00203722
0.00203428
0.00203092
0.00202722
0.00202324
0.00201906
0.00201477
0.00201043
0.00200619
0.00200222
0.00204681
0.00204938
0.00204906
0.00204898
0.00204764
0.00204657
0.002045
0.00204326
0.00204119
0.00203876
0.00203586
0.00203251
0.00202882
0.00202478
0.00202048
0.002016
0.0020114
0.00200683
0.00200244
0.00205082
0.0020497
0.00204909
0.00204917
0.00204801
0.002047
0.00204568
0.00204405
0.00204208
0.00203973
0.00203695
0.00203372
0.0020301
0.0020261
0.00202178
0.0020172
0.00201239
0.0020075
0.00200267
0.00204656
0.00204876
0.002049
0.00204888
0.00204801
0.00204704
0.0020458
0.00204432
0.00204249
0.00204026
0.00203761
0.00203454
0.0020311
0.00202719
0.00202289
0.00201826
0.00201331
0.00200815
0.00200292
0.00204942
0.0020477
0.00204787
0.00204776
0.00204722
0.00204648
0.00204545
0.00204413
0.00204245
0.0020404
0.00203794
0.00203508
0.00203181
0.00202808
0.00202389
0.00201928
0.00201424
0.00200883
0.00200318
0.00204402
0.00204606
0.00204658
0.00204659
0.00204618
0.00204558
0.00204471
0.00204357
0.00204208
0.00204023
0.002038
0.00203535
0.0020323
0.00202874
0.00202468
0.00202015
0.00201508
0.00200949
0.00200345
0.00204629
0.00204456
0.00204471
0.00204478
0.00204465
0.00204433
0.00204366
0.00204268
0.00204137
0.00203973
0.00203773
0.00203533
0.00203253
0.00202921
0.00202536
0.00202097
0.00201592
0.00201018
0.00200375
0.0020402
0.00204245
0.00204303
0.00204325
0.00204315
0.00204292
0.0020424
0.00204161
0.00204048
0.00203905
0.00203727
0.00203511
0.00203255
0.00202947
0.00202584
0.00202162
0.00201665
0.00201083
0.00200405
0.00204218
0.00204071
0.00204091
0.00204115
0.0020413
0.00204127
0.00204093
0.00204029
0.00203934
0.00203811
0.00203656
0.00203469
0.00203239
0.00202957
0.00202623
0.00202223
0.00201738
0.00201151
0.00200438
0.00203576
0.00203822
0.002039
0.00203942
0.00203952
0.00203952
0.0020393
0.00203883
0.00203807
0.00203707
0.00203577
0.00203406
0.002032
0.00202948
0.0020264
0.00202265
0.00201799
0.00201214
0.00200472
0.00203765
0.00203644
0.00203674
0.00203714
0.00203749
0.00203767
0.00203759
0.00203725
0.00203664
0.00203578
0.00203466
0.00203327
0.00203147
0.00202924
0.0020265
0.00202304
0.00201859
0.0020128
0.00200509
0.00203131
0.00203369
0.00203469
0.00203534
0.00203562
0.0020358
0.0020358
0.00203559
0.00203515
0.00203451
0.00203362
0.00203236
0.00203081
0.00202886
0.00202639
0.00202324
0.00201906
0.0020134
0.00200548
0.00203309
0.00203212
0.00203248
0.00203301
0.00203352
0.00203387
0.002034
0.00203392
0.00203358
0.00203301
0.00203226
0.00203131
0.00203001
0.00202835
0.00202623
0.0020234
0.00201952
0.00201402
0.00200589
0.00202711
0.00202925
0.00203041
0.00203128
0.00203176
0.00203211
0.00203227
0.00203224
0.002032
0.00203164
0.00203108
0.00203026
0.00202917
0.00202775
0.00202589
0.00202339
0.00201984
0.00201457
0.00200631
0.0020288
0.00202804
0.00202841
0.00202899
0.00202962
0.0020301
0.0020304
0.00203048
0.00203034
0.00203003
0.00202959
0.002029
0.00202816
0.00202703
0.00202551
0.00202334
0.00202013
0.00201512
0.00200677
0.00202347
0.00202518
0.00202646
0.00202747
0.00202808
0.00202854
0.00202882
0.00202893
0.00202887
0.0020287
0.00202841
0.00202789
0.00202723
0.0020263
0.002025
0.00202315
0.00202029
0.00201559
0.00200722
0.00202483
0.00202441
0.00202474
0.00202533
0.00202602
0.00202658
0.00202697
0.00202716
0.0020272
0.0020271
0.00202688
0.0020266
0.00202612
0.00202542
0.00202442
0.0020229
0.00202041
0.00201603
0.00200769
0.00202029
0.00202144
0.00202277
0.00202386
0.00202457
0.00202514
0.00202553
0.00202577
0.00202586
0.00202582
0.00202568
0.00202542
0.00202505
0.00202448
0.00202365
0.00202239
0.00202025
0.0020163
0.00200815
0.0020207
0.00202078
0.00202088
0.00202147
0.00202233
0.002023
0.00202349
0.00202378
0.00202393
0.00202394
0.00202387
0.00202378
0.00202357
0.00202321
0.00202269
0.00202177
0.00202005
0.00201658
0.00200867
0.00178453
0.00178376
0.00178378
0.00178339
0.00178241
0.00178106
0.00177923
0.00177691
0.00177396
0.00177026
0.00176562
0.00175973
0.00175221
0.00174244
0.0017295
0.00171191
0.0016871
0.00165034
0.00159172
0.00180462
0.0018013
0.00180022
0.00180031
0.00180005
0.00179958
0.00179865
0.00179733
0.00179557
0.00179337
0.00179041
0.00178668
0.00178168
0.00177522
0.00176685
0.00175571
0.0017404
0.00171833
0.00168408
0.00199046
0.00198984
0.00198928
0.00198884
0.00198863
0.00198851
0.00198852
0.00198861
0.00198873
0.00198889
0.00198906
0.00198926
0.00198948
0.00198977
0.00199017
0.00199077
0.00199173
0.00199341
0.00199671
0.00199002
0.00198946
0.00198892
0.00198851
0.00198831
0.0019882
0.00198822
0.00198831
0.00198845
0.00198862
0.00198881
0.00198903
0.00198929
0.00198961
0.00199006
0.00199073
0.00199177
0.00199353
0.00199684
0.00198956
0.00198901
0.00198846
0.00198807
0.00198792
0.00198786
0.0019879
0.00198802
0.00198817
0.00198835
0.00198856
0.00198881
0.0019891
0.00198946
0.00198997
0.0019907
0.00199182
0.00199365
0.00199696
0.00198912
0.00198863
0.0019881
0.00198774
0.0019876
0.00198755
0.0019876
0.00198772
0.00198789
0.00198809
0.00198832
0.00198859
0.00198892
0.00198933
0.00198989
0.00199069
0.00199188
0.00199377
0.00199707
0.00198866
0.00198817
0.00198764
0.00198731
0.00198722
0.00198721
0.00198728
0.00198743
0.00198761
0.00198783
0.00198809
0.00198839
0.00198875
0.0019892
0.00198982
0.00199069
0.00199195
0.00199391
0.00199719
0.00198822
0.00198779
0.00198728
0.00198699
0.00198691
0.00198691
0.00198699
0.00198714
0.00198734
0.00198758
0.00198786
0.00198819
0.00198859
0.00198909
0.00198977
0.0019907
0.00199203
0.00199404
0.0019973
0.00198774
0.00198735
0.00198684
0.00198658
0.00198654
0.00198657
0.00198668
0.00198686
0.00198708
0.00198734
0.00198765
0.00198801
0.00198845
0.001989
0.00198973
0.00199073
0.00199213
0.00199419
0.00199741
0.00198729
0.00198698
0.0019865
0.00198627
0.00198624
0.00198629
0.0019864
0.00198659
0.00198683
0.00198712
0.00198745
0.00198785
0.00198832
0.00198893
0.00198972
0.00199078
0.00199224
0.00199433
0.00199752
0.00198681
0.00198657
0.00198609
0.00198589
0.00198589
0.00198597
0.00198612
0.00198633
0.00198659
0.0019869
0.00198727
0.0019877
0.00198822
0.00198887
0.00198972
0.00199084
0.00199236
0.00199449
0.00199762
0.00198638
0.00198621
0.00198577
0.0019856
0.00198562
0.00198571
0.00198587
0.00198609
0.00198637
0.00198671
0.0019871
0.00198757
0.00198814
0.00198884
0.00198974
0.00199093
0.0019925
0.00199465
0.00199772
0.0019859
0.00198584
0.00198541
0.00198526
0.0019853
0.00198543
0.00198561
0.00198587
0.00198617
0.00198654
0.00198696
0.00198747
0.00198808
0.00198883
0.00198979
0.00199103
0.00199265
0.00199481
0.00199782
0.00198549
0.00198552
0.00198512
0.00198501
0.00198507
0.0019852
0.0019854
0.00198567
0.001986
0.00198639
0.00198684
0.00198739
0.00198804
0.00198884
0.00198986
0.00199115
0.00199281
0.00199498
0.00199792
0.00198504
0.00198519
0.00198481
0.00198472
0.0019848
0.00198496
0.00198519
0.00198549
0.00198585
0.00198626
0.00198675
0.00198734
0.00198803
0.00198888
0.00198995
0.00199128
0.00199298
0.00199515
0.00199801
0.00198467
0.00198493
0.00198457
0.00198452
0.00198461
0.00198479
0.00198503
0.00198535
0.00198572
0.00198617
0.00198669
0.00198731
0.00198805
0.00198895
0.00199006
0.00199144
0.00199316
0.00199532
0.0019981
0.00198427
0.00198467
0.00198433
0.00198429
0.00198441
0.00198461
0.00198489
0.00198523
0.00198563
0.00198611
0.00198666
0.00198732
0.0019881
0.00198904
0.00199019
0.00199161
0.00199335
0.00199549
0.00199818
0.00198396
0.00198448
0.00198416
0.00198416
0.00198429
0.00198451
0.0019848
0.00198516
0.00198558
0.00198608
0.00198667
0.00198736
0.00198818
0.00198916
0.00199035
0.0019918
0.00199355
0.00199567
0.00199827
0.00198363
0.00198431
0.00198401
0.00198402
0.00198417
0.00198441
0.00198473
0.00198512
0.00198557
0.0019861
0.00198671
0.00198744
0.00198829
0.0019893
0.00199053
0.001992
0.00199375
0.00199584
0.00199835
0.00198342
0.00198421
0.00198394
0.00198398
0.00198414
0.0019844
0.00198473
0.00198513
0.0019856
0.00198615
0.00198679
0.00198755
0.00198844
0.00198948
0.00199074
0.00199222
0.00199397
0.00199602
0.00199843
0.0019832
0.00198415
0.00198389
0.00198394
0.00198412
0.0019844
0.00198476
0.00198518
0.00198567
0.00198625
0.00198692
0.00198771
0.00198862
0.0019897
0.00199097
0.00199246
0.0019942
0.0019962
0.0019985
0.00198311
0.00198418
0.00198394
0.00198401
0.00198421
0.0019845
0.00198486
0.00198529
0.0019858
0.0019864
0.00198709
0.00198791
0.00198885
0.00198994
0.00199123
0.00199272
0.00199443
0.00199638
0.00199858
0.00198302
0.00198425
0.00198402
0.0019841
0.00198431
0.00198461
0.001985
0.00198546
0.00198598
0.0019866
0.00198732
0.00198815
0.00198911
0.00199022
0.00199151
0.001993
0.00199468
0.00199656
0.00199865
0.00198307
0.00198441
0.0019842
0.00198429
0.00198451
0.00198482
0.00198522
0.00198568
0.00198623
0.00198686
0.0019876
0.00198845
0.00198942
0.00199054
0.00199182
0.00199329
0.00199493
0.00199674
0.00199872
0.00198313
0.00198463
0.00198442
0.00198451
0.00198474
0.00198507
0.00198548
0.00198597
0.00198653
0.00198718
0.00198793
0.00198879
0.00198977
0.00199088
0.00199216
0.0019936
0.00199519
0.00199692
0.00199879
0.00198334
0.00198495
0.00198474
0.00198484
0.00198507
0.00198542
0.00198584
0.00198634
0.00198691
0.00198756
0.00198832
0.00198918
0.00199015
0.00199126
0.00199252
0.00199392
0.00199546
0.00199711
0.00199886
0.00198355
0.00198533
0.00198513
0.00198522
0.00198545
0.00198582
0.00198626
0.00198677
0.00198735
0.00198801
0.00198876
0.00198961
0.00199058
0.00199167
0.0019929
0.00199425
0.00199573
0.00199729
0.00199893
0.00198393
0.00198582
0.00198562
0.00198571
0.00198596
0.00198633
0.00198678
0.00198729
0.00198786
0.00198852
0.00198926
0.0019901
0.00199104
0.00199211
0.00199329
0.0019946
0.001996
0.00199747
0.00199899
0.00198433
0.00198639
0.00198619
0.00198629
0.00198654
0.00198692
0.00198738
0.00198789
0.00198846
0.0019891
0.00198982
0.00199063
0.00199155
0.00199257
0.00199372
0.00199496
0.00199628
0.00199766
0.00199905
0.00198492
0.00198709
0.00198689
0.001987
0.00198726
0.00198764
0.00198808
0.00198858
0.00198912
0.00198974
0.00199043
0.00199122
0.0019921
0.00199308
0.00199416
0.00199533
0.00199657
0.00199784
0.00199911
0.00198557
0.00198788
0.00198769
0.0019878
0.00198806
0.00198843
0.00198886
0.00198934
0.00198986
0.00199044
0.0019911
0.00199185
0.00199268
0.00199361
0.00199462
0.00199571
0.00199686
0.00199802
0.00199917
0.00198644
0.00198881
0.00198863
0.00198876
0.00198901
0.00198934
0.00198974
0.00199017
0.00199065
0.0019912
0.00199183
0.00199253
0.0019933
0.00199416
0.0019951
0.00199611
0.00199715
0.0019982
0.00199923
0.0019874
0.00198986
0.0019897
0.00198982
0.00199003
0.00199031
0.00199066
0.00199105
0.0019915
0.00199201
0.00199259
0.00199324
0.00199396
0.00199474
0.0019956
0.00199651
0.00199745
0.00199838
0.00199929
0.00198859
0.00199101
0.00199086
0.00199094
0.0019911
0.00199133
0.00199162
0.00199197
0.00199238
0.00199285
0.00199339
0.00199399
0.00199464
0.00199535
0.00199611
0.00199692
0.00199774
0.00199856
0.00199935
0.00198987
0.00199216
0.001992
0.00199205
0.00199213
0.00199229
0.00199255
0.00199288
0.00199327
0.00199371
0.00199421
0.00199474
0.00199533
0.00199595
0.00199662
0.00199733
0.00199804
0.00199873
0.0019994
0.00199123
0.00199334
0.00199311
0.0019931
0.00199312
0.00199324
0.00199347
0.00199379
0.00199416
0.00199457
0.00199501
0.00199549
0.001996
0.00199654
0.00199712
0.00199772
0.00199832
0.0019989
0.00199945
0.00199235
0.00199443
0.00199408
0.00199401
0.00199405
0.00199417
0.00199442
0.00199474
0.00199507
0.00199543
0.00199583
0.00199624
0.00199668
0.00199713
0.00199761
0.00199811
0.00199859
0.00199905
0.0019995
0.00199323
0.00199551
0.00199498
0.00199486
0.00199496
0.00199519
0.00199546
0.00199576
0.00199605
0.00199635
0.00199667
0.00199701
0.00199736
0.00199773
0.00199811
0.00199849
0.00199886
0.00199921
0.00199955
0.0019931
0.00199645
0.00199587
0.00199585
0.00199609
0.00199637
0.00199665
0.00199689
0.00199712
0.00199735
0.0019976
0.00199785
0.0019981
0.00199836
0.00199863
0.00199889
0.00199914
0.00199937
0.00199959
0.00196246
0.00196832
0.00196811
0.00196836
0.00196872
0.001969
0.00196923
0.00196945
0.00196968
0.00196996
0.00197029
0.00197069
0.00197116
0.00197171
0.00197239
0.00197322
0.00197419
0.00197531
0.00197659
0.00189547
0.00190473
0.00190611
0.0019078
0.00190955
0.0019114
0.00191343
0.00191573
0.00191832
0.00192128
0.00192466
0.00192851
0.00193284
0.00193765
0.00194298
0.00194874
0.00195478
0.00196094
0.00196708
0.00185418
0.00186076
0.00186342
0.00186667
0.00187033
0.00187451
0.00187927
0.00188466
0.00189078
0.00189769
0.00190546
0.00191414
0.00192367
0.00193395
0.00194488
0.00195616
0.00196735
0.00197809
0.00198798
0.00178655
0.0017968
0.00180322
0.00181456
0.00183111
0.00185065
0.00187458
0.00189053
0.00189727
0.00190476
0.00191305
0.0019221
0.00193178
0.0019419
0.0019523
0.00196267
0.00197265
0.00198191
0.0019901
0.0015581
0.00158955
0.00161358
0.00163917
0.00166243
0.00168895
0.00171947
0.00175709
0.00180231
0.00185682
0.00188023
0.0018898
0.0018999
0.00191033
0.0019209
0.00193129
0.00194126
0.00195092
0.00196004
0.0011202
0.00115239
0.00116657
0.00118367
0.00119975
0.00121795
0.00123823
0.00126217
0.00129014
0.00132319
0.0013638
0.00141527
0.00147742
0.00155015
0.00163988
0.00175071
0.0018814
0.00194944
0.00195281
0.00152283
0.00155799
0.00157672
0.00159473
0.0016166
0.00163918
0.00166687
0.00170042
0.00174171
0.00179209
0.00185516
0.00193551
0.00202706
0.00201986
0.00201285
0.00200637
0.00200064
0.00199586
0.00199205
0.00160392
0.00163188
0.00164821
0.00166531
0.00168609
0.00170795
0.00173456
0.00176653
0.00180637
0.00185428
0.00191454
0.0019908
0.0020055
0.00200453
0.0020036
0.00200271
0.00200192
0.00200124
0.00200069
0.00164164
0.00167861
0.00170387
0.00172772
0.00175131
0.0017776
0.00180822
0.00184278
0.00188436
0.0019343
0.00199944
0.00201016
0.00200872
0.00200722
0.00200573
0.00200431
0.002003
0.00200184
0.00200087
0.00167355
0.00169579
0.00171205
0.00172921
0.00175004
0.00177182
0.00179862
0.00183049
0.00186971
0.00191663
0.00197877
0.00201367
0.00201173
0.00200973
0.00200773
0.00200581
0.00200401
0.0020024
0.00200103
0.00170715
0.00173207
0.001752
0.00177498
0.00179727
0.00182211
0.00185063
0.0018845
0.00192518
0.00197248
0.00201954
0.00201722
0.00201482
0.00201235
0.00200984
0.00200739
0.0020051
0.00200301
0.00200121
0.00176108
0.00178282
0.00179466
0.0018098
0.00182941
0.00184968
0.00187456
0.00190401
0.00194051
0.00198423
0.00202305
0.00202037
0.00201758
0.00201471
0.00201176
0.00200886
0.00200611
0.00200359
0.00200139
0.00181474
0.00183669
0.0018522
0.00187208
0.00189197
0.00191489
0.00194104
0.00197111
0.0020058
0.00202898
0.00202637
0.00202342
0.00202031
0.00201707
0.00201372
0.00201039
0.00200719
0.00200422
0.00200158
0.00189016
0.00191527
0.00192387
0.0019358
0.00195345
0.00197232
0.00199593
0.00202256
0.00203428
0.00203184
0.00202907
0.00202598
0.00202264
0.00201911
0.00201545
0.00201178
0.0020082
0.00200482
0.00200177
0.00196862
0.00198609
0.00199927
0.0020163
0.00203303
0.00204232
0.00204083
0.00203904
0.00203696
0.00203448
0.0020316
0.00202838
0.00202488
0.00202112
0.00201719
0.00201321
0.00200925
0.00200546
0.00200197
0.00204705
0.00204678
0.00204622
0.00204561
0.00204483
0.00204383
0.00204246
0.00204075
0.00203868
0.00203625
0.00203343
0.00203018
0.00202662
0.00202277
0.00201868
0.00201447
0.00201022
0.00200608
0.00200218
0.0020499
0.00204819
0.00204762
0.0020469
0.00204616
0.0020452
0.0020439
0.00204224
0.00204022
0.00203784
0.00203507
0.00203185
0.00202828
0.00202437
0.00202015
0.00201575
0.00201123
0.00200674
0.0020024
0.00204781
0.00204766
0.00204721
0.00204671
0.0020462
0.00204544
0.00204432
0.0020428
0.00204092
0.00203866
0.00203602
0.00203291
0.00202944
0.00202558
0.00202135
0.00201686
0.00201216
0.00200737
0.00200263
0.00204949
0.00204792
0.00204748
0.00204702
0.00204647
0.00204574
0.0020447
0.0020433
0.00204153
0.00203939
0.00203687
0.0020339
0.00203053
0.00202675
0.00202253
0.00201799
0.00201312
0.00200804
0.00200288
0.00204619
0.00204624
0.002046
0.00204585
0.00204558
0.00204503
0.00204417
0.00204294
0.00204136
0.00203941
0.00203706
0.0020343
0.00203115
0.00202753
0.00202343
0.00201892
0.00201398
0.00200869
0.00200314
0.00204708
0.00204567
0.00204548
0.00204527
0.002045
0.00204452
0.00204374
0.00204265
0.00204121
0.00203941
0.00203728
0.00203471
0.00203173
0.00202828
0.00202431
0.00201986
0.00201488
0.00200937
0.00200341
0.00204288
0.00204328
0.00204327
0.00204334
0.00204335
0.0020431
0.00204254
0.00204164
0.0020404
0.00203883
0.0020369
0.00203458
0.00203187
0.00202866
0.00202491
0.0020206
0.00201565
0.00201002
0.0020037
0.00204342
0.0020423
0.00204223
0.00204221
0.00204219
0.00204199
0.00204153
0.00204077
0.00203969
0.00203831
0.00203663
0.00203453
0.00203203
0.00202905
0.00202549
0.00202134
0.00201645
0.00201071
0.00200401
0.00203879
0.00203943
0.00203958
0.00203985
0.00204011
0.00204018
0.00203994
0.00203936
0.00203846
0.00203729
0.0020358
0.00203398
0.00203176
0.00202906
0.00202579
0.00202187
0.00201712
0.00201135
0.00200433
0.00203908
0.00203829
0.00203841
0.00203855
0.00203872
0.00203877
0.00203859
0.00203815
0.00203742
0.00203642
0.00203518
0.00203355
0.00203154
0.0020291
0.00202609
0.00202239
0.0020178
0.00201202
0.00200468
0.00203448
0.00203523
0.00203554
0.002036
0.00203645
0.00203675
0.0020368
0.00203653
0.00203598
0.00203515
0.00203404
0.00203268
0.00203096
0.00202879
0.0020261
0.0020227
0.00201834
0.00201263
0.00200504
0.00203455
0.00203406
0.00203438
0.00203467
0.00203498
0.0020352
0.00203523
0.00203505
0.00203462
0.002034
0.00203314
0.00203193
0.00203041
0.00202853
0.00202613
0.00202301
0.00201888
0.00201328
0.00200543
0.00203026
0.00203098
0.0020314
0.00203202
0.00203265
0.00203313
0.00203337
0.00203332
0.00203304
0.00203254
0.00203182
0.00203085
0.00202958
0.00202798
0.00202589
0.0020231
0.00201927
0.00201385
0.00200583
0.00203008
0.00202991
0.00203041
0.00203085
0.00203126
0.0020316
0.00203178
0.00203177
0.00203158
0.00203121
0.00203066
0.00202987
0.00202883
0.00202748
0.00202566
0.00202318
0.00201966
0.00201444
0.00200627
0.00202638
0.00202697
0.00202747
0.00202818
0.00202894
0.00202954
0.00202993
0.00203005
0.00202997
0.00202971
0.00202928
0.00202867
0.00202781
0.0020267
0.00202521
0.00202307
0.00201989
0.00201496
0.00200671