/*--------------------------------*- C++ -*----------------------------------*\
| =========                 |                                                 |
| \\      /  F ield         | OpenFOAM: The Open Source CFD Toolbox           |
|  \\    /   O peration     | Version:  2.1.x                                 |
|   \\  /    A nd           | Web:      www.OpenFOAM.org                      |
|    \\/     M anipulation  |                                                 |
\*---------------------------------------------------------------------------*/
FoamFile
{
    version     2.0;
    format      ascii;
    class       volVectorField;
    location    "1";
    object      U;
}
// * * * * * * * * * * * * * * * * * * * * * * * * * * * * * * * * * * * * * //

dimensions      [0 1 -1 0 0 0 0];

internalField   nonuniform List<vector> 
114040
(
(0.520981 1.45338 -49.1763)
(-0.405465 -0.603824 -49.989)
(-0.616144 -0.624315 -49.3851)
(-0.960954 -0.921563 -48.6637)
(-0.87068 -0.731132 -48.106)
(-0.733201 -0.681505 -47.8701)
(-0.605524 -0.622866 -47.8351)
(-0.48313 -0.573966 -47.8486)
(-0.393764 -0.524944 -47.8605)
(-0.339998 -0.478127 -47.855)
(-0.280472 -0.434482 -47.8578)
(-0.231679 -0.36826 -47.8413)
(-0.19319 -0.307078 -47.7854)
(-0.170786 -0.241216 -47.7306)
(-0.187365 -0.197514 -47.6654)
(-0.191658 -0.202554 -47.5647)
(-0.178216 -0.199765 -47.4538)
(-0.165921 -0.191137 -47.3372)
(-0.194745 -0.275682 -47.1572)
(0.365038 1.46328 -49.3197)
(-0.53653 -0.560705 -49.9093)
(-0.729435 -0.630961 -49.1904)
(-0.969031 -0.911785 -48.4699)
(-0.869255 -0.751545 -47.9951)
(-0.700062 -0.687024 -47.8368)
(-0.577226 -0.6397 -47.8321)
(-0.46216 -0.589825 -47.8514)
(-0.379822 -0.536498 -47.8624)
(-0.331124 -0.488216 -47.8573)
(-0.274299 -0.444455 -47.8586)
(-0.22739 -0.376222 -47.8386)
(-0.19063 -0.314418 -47.78)
(-0.170046 -0.24681 -47.7229)
(-0.186993 -0.2044 -47.6571)
(-0.190634 -0.210881 -47.5587)
(-0.176247 -0.208757 -47.4536)
(-0.164338 -0.199462 -47.3463)
(-0.192991 -0.28444 -47.1792)
(0.313338 1.40067 -49.2672)
(-0.534646 -0.55872 -49.8274)
(-0.72727 -0.645224 -49.168)
(-0.969892 -0.920771 -48.4679)
(-0.860874 -0.749455 -48.0142)
(-0.704701 -0.689234 -47.8517)
(-0.578732 -0.632047 -47.8392)
(-0.463263 -0.583571 -47.8551)
(-0.381502 -0.532978 -47.8651)
(-0.331833 -0.48611 -47.8598)
(-0.274045 -0.442586 -47.8623)
(-0.227152 -0.37631 -47.8438)
(-0.190609 -0.315287 -47.7867)
(-0.169624 -0.249448 -47.7314)
(-0.186044 -0.208422 -47.6668)
(-0.189045 -0.214096 -47.5693)
(-0.174298 -0.211235 -47.463)
(-0.162462 -0.203565 -47.3502)
(-0.191879 -0.285785 -47.1803)
(0.158153 1.39641 -49.3916)
(-0.642502 -0.521721 -49.7568)
(-0.826564 -0.654414 -48.9918)
(-0.986309 -0.912674 -48.2949)
(-0.858024 -0.760556 -47.9126)
(-0.677271 -0.691054 -47.8178)
(-0.554374 -0.641438 -47.8335)
(-0.444551 -0.592323 -47.8556)
(-0.368178 -0.538851 -47.8654)
(-0.321959 -0.490736 -47.8613)
(-0.266369 -0.446317 -47.8629)
(-0.221562 -0.377678 -47.8416)
(-0.186642 -0.315874 -47.7826)
(-0.167598 -0.24884 -47.7261)
(-0.184639 -0.208092 -47.661)
(-0.187385 -0.214934 -47.5646)
(-0.172218 -0.211809 -47.4605)
(-0.160763 -0.203177 -47.352)
(-0.190228 -0.288847 -47.1887)
(0.0934903 1.32476 -49.3446)
(-0.650981 -0.522595 -49.654)
(-0.811284 -0.675036 -48.951)
(-0.969118 -0.92014 -48.3101)
(-0.845097 -0.757228 -47.9472)
(-0.679095 -0.689957 -47.841)
(-0.556013 -0.632896 -47.8422)
(-0.445842 -0.58463 -47.8582)
(-0.369533 -0.533241 -47.8664)
(-0.322182 -0.486229 -47.8612)
(-0.265742 -0.441623 -47.8627)
(-0.220804 -0.374063 -47.8415)
(-0.186155 -0.31251 -47.7832)
(-0.166904 -0.246689 -47.7274)
(-0.183753 -0.206708 -47.663)
(-0.186278 -0.212555 -47.5667)
(-0.171292 -0.209097 -47.46)
(-0.160243 -0.201181 -47.344)
(-0.190435 -0.284237 -47.1735)
(-0.0556839 1.3131 -49.4501)
(-0.748073 -0.493477 -49.5968)
(-0.893935 -0.688228 -48.8023)
(-0.986701 -0.913021 -48.1572)
(-0.843679 -0.767043 -47.8529)
(-0.656085 -0.692998 -47.8045)
(-0.534249 -0.641497 -47.8325)
(-0.428689 -0.59262 -47.8552)
(-0.35736 -0.538839 -47.8632)
(-0.313122 -0.490777 -47.8588)
(-0.25883 -0.445648 -47.859)
(-0.216006 -0.376201 -47.8343)
(-0.182704 -0.313828 -47.7734)
(-0.165359 -0.246953 -47.7154)
(-0.183176 -0.208049 -47.6491)
(-0.186088 -0.214638 -47.5526)
(-0.17116 -0.211952 -47.4464)
(-0.160733 -0.201637 -47.3329)
(-0.190868 -0.285472 -47.1661)
(-0.130461 1.2363 -49.4031)
(-0.765942 -0.503007 -49.4793)
(-0.87061 -0.714419 -48.7506)
(-0.956751 -0.921955 -48.1852)
(-0.826165 -0.767541 -47.8998)
(-0.655216 -0.694708 -47.8354)
(-0.535576 -0.637282 -47.8442)
(-0.430318 -0.589035 -47.8588)
(-0.35916 -0.537161 -47.8645)
(-0.314266 -0.490419 -47.8585)
(-0.259546 -0.445532 -47.8578)
(-0.21647 -0.377878 -47.8326)
(-0.183368 -0.316465 -47.7715)
(-0.16584 -0.251567 -47.7128)
(-0.183495 -0.214404 -47.6458)
(-0.186383 -0.22235 -47.5485)
(-0.172051 -0.220213 -47.4401)
(-0.162383 -0.2084 -47.3185)
(-0.192865 -0.286539 -47.1431)
(-0.271476 1.21663 -49.4922)
(-0.852317 -0.485544 -49.4387)
(-0.937796 -0.732496 -48.6353)
(-0.974787 -0.917429 -48.0568)
(-0.825389 -0.777955 -47.8154)
(-0.635507 -0.700542 -47.8003)
(-0.516111 -0.647425 -47.8348)
(-0.414612 -0.598523 -47.8568)
(-0.348113 -0.544861 -47.8626)
(-0.306192 -0.497563 -47.8574)
(-0.253539 -0.452637 -47.8559)
(-0.212457 -0.383542 -47.8279)
(-0.180637 -0.321916 -47.7646)
(-0.16513 -0.256508 -47.7044)
(-0.183801 -0.220169 -47.6355)
(-0.187005 -0.229506 -47.5374)
(-0.172885 -0.230671 -47.4292)
(-0.164152 -0.219489 -47.3108)
(-0.194066 -0.296031 -47.1396)
(-0.352757 1.13448 -49.4447)
(-0.874999 -0.500202 -49.3135)
(-0.90808 -0.762246 -48.5784)
(-0.936504 -0.926391 -48.0943)
(-0.80362 -0.780208 -47.8726)
(-0.632251 -0.703511 -47.8387)
(-0.516994 -0.645366 -47.851)
(-0.416374 -0.596799 -47.8634)
(-0.349956 -0.544612 -47.8665)
(-0.307489 -0.498373 -47.8597)
(-0.254387 -0.453348 -47.857)
(-0.212973 -0.385672 -47.8287)
(-0.181356 -0.324694 -47.7657)
(-0.165782 -0.261127 -47.7052)
(-0.184259 -0.227103 -47.6366)
(-0.187162 -0.237849 -47.5395)
(-0.173656 -0.240246 -47.4301)
(-0.16567 -0.231465 -47.306)
(-0.195091 -0.303991 -47.1306)
(-0.486712 1.10921 -49.5175)
(-0.952007 -0.491117 -49.2885)
(-0.961863 -0.781837 -48.4961)
(-0.955067 -0.92147 -47.9905)
(-0.804089 -0.788238 -47.7979)
(-0.615681 -0.708908 -47.8057)
(-0.499629 -0.654248 -47.843)
(-0.401884 -0.604925 -47.8634)
(-0.339719 -0.551085 -47.867)
(-0.299897 -0.504106 -47.8609)
(-0.248517 -0.45882 -47.858)
(-0.208767 -0.389225 -47.8276)
(-0.178322 -0.32742 -47.7632)
(-0.164495 -0.262797 -47.7024)
(-0.183589 -0.228382 -47.6342)
(-0.186801 -0.240596 -47.5383)
(-0.173483 -0.245015 -47.4307)
(-0.16586 -0.239062 -47.3125)
(-0.193861 -0.313823 -47.1469)
(-0.572147 1.02875 -49.4665)
(-0.974736 -0.509299 -49.16)
(-0.92761 -0.810541 -48.4363)
(-0.911973 -0.927222 -48.0322)
(-0.77893 -0.788912 -47.8612)
(-0.61028 -0.71029 -47.8496)
(-0.499972 -0.651282 -47.863)
(-0.403668 -0.602105 -47.8727)
(-0.341353 -0.549576 -47.8734)
(-0.300796 -0.50373 -47.866)
(-0.248717 -0.458171 -47.862)
(-0.208536 -0.389541 -47.8316)
(-0.178034 -0.328048 -47.7678)
(-0.163834 -0.264763 -47.7075)
(-0.18245 -0.231903 -47.6403)
(-0.185194 -0.243787 -47.5471)
(-0.172296 -0.247402 -47.4414)
(-0.164718 -0.242917 -47.3211)
(-0.191678 -0.31622 -47.1567)
(-0.699331 1.0066 -49.5229)
(-1.03962 -0.50581 -49.1481)
(-0.96996 -0.828354 -48.3844)
(-0.931556 -0.92037 -47.9507)
(-0.78094 -0.793256 -47.7954)
(-0.596299 -0.71344 -47.8183)
(-0.484113 -0.657575 -47.8559)
(-0.389711 -0.607871 -47.8746)
(-0.331044 -0.554117 -47.8768)
(-0.292758 -0.507779 -47.8705)
(-0.242166 -0.462303 -47.867)
(-0.203287 -0.392156 -47.8353)
(-0.17368 -0.329881 -47.7711)
(-0.16089 -0.265151 -47.7115)
(-0.179832 -0.230641 -47.6455)
(-0.182808 -0.242207 -47.5537)
(-0.169954 -0.246398 -47.4506)
(-0.162032 -0.240481 -47.3387)
(-0.187734 -0.317437 -47.186)
(-0.78826 0.936376 -49.469)
(-1.05787 -0.524448 -49.0208)
(-0.933177 -0.853457 -48.3236)
(-0.886496 -0.922429 -47.9926)
(-0.75313 -0.791602 -47.8612)
(-0.588508 -0.712523 -47.8657)
(-0.483089 -0.652903 -47.879)
(-0.390507 -0.603321 -47.8864)
(-0.331471 -0.550919 -47.8854)
(-0.292291 -0.506003 -47.8781)
(-0.240845 -0.460593 -47.8738)
(-0.201496 -0.391561 -47.8423)
(-0.171667 -0.329813 -47.7793)
(-0.15851 -0.266717 -47.7202)
(-0.177123 -0.23372 -47.6548)
(-0.17961 -0.24437 -47.5649)
(-0.166821 -0.24655 -47.464)
(-0.158659 -0.237597 -47.3509)
(-0.183962 -0.311824 -47.1997)
(-0.9094 0.925047 -49.5106)
(-1.11254 -0.523069 -49.0187)
(-0.966919 -0.869459 -48.2969)
(-0.907126 -0.914612 -47.9298)
(-0.756489 -0.793325 -47.8026)
(-0.576415 -0.713988 -47.8351)
(-0.468005 -0.65729 -47.8716)
(-0.376399 -0.607296 -47.8889)
(-0.320486 -0.553845 -47.89)
(-0.283342 -0.508426 -47.8842)
(-0.233292 -0.463184 -47.8806)
(-0.195008 -0.392806 -47.8484)
(-0.166045 -0.330336 -47.7853)
(-0.154513 -0.266407 -47.7269)
(-0.173708 -0.232751 -47.6624)
(-0.176383 -0.243444 -47.5734)
(-0.163536 -0.244463 -47.4737)
(-0.154906 -0.234392 -47.3675)
(-0.179864 -0.308971 -47.2261)
(-1.00248 0.861992 -49.4508)
(-1.12763 -0.543988 -48.8931)
(-0.928825 -0.893165 -48.2339)
(-0.86122 -0.915848 -47.9671)
(-0.726679 -0.79177 -47.8665)
(-0.566416 -0.712996 -47.8824)
(-0.465526 -0.652784 -47.8949)
(-0.376211 -0.602604 -47.9002)
(-0.319986 -0.550261 -47.8977)
(-0.281986 -0.506181 -47.8904)
(-0.231095 -0.460986 -47.8856)
(-0.192486 -0.391546 -47.8529)
(-0.163644 -0.329695 -47.7901)
(-0.15226 -0.267526 -47.7312)
(-0.17126 -0.234955 -47.6663)
(-0.173502 -0.245753 -47.5784)
(-0.160537 -0.246739 -47.4803)
(-0.151753 -0.234486 -47.3717)
(-0.177127 -0.303733 -47.2295)
(-1.11695 0.852197 -49.4737)
(-1.17029 -0.549376 -48.8957)
(-0.954141 -0.910498 -48.2249)
(-0.881877 -0.911097 -47.9165)
(-0.731382 -0.794654 -47.811)
(-0.556233 -0.716025 -47.8489)
(-0.451611 -0.658432 -47.8832)
(-0.362705 -0.607799 -47.8989)
(-0.309377 -0.554356 -47.8988)
(-0.273489 -0.509579 -47.8927)
(-0.224186 -0.464301 -47.8881)
(-0.186797 -0.393445 -47.8542)
(-0.159135 -0.33083 -47.7904)
(-0.149478 -0.268066 -47.7311)
(-0.169199 -0.235662 -47.6667)
(-0.17153 -0.247466 -47.5793)
(-0.158482 -0.248417 -47.4814)
(-0.149351 -0.237047 -47.3779)
(-0.175178 -0.306345 -47.2427)
(-1.20962 0.789705 -49.4067)
(-1.18088 -0.577012 -48.7713)
(-0.915547 -0.935337 -48.1571)
(-0.835957 -0.915189 -47.9442)
(-0.700407 -0.796339 -47.8677)
(-0.544975 -0.71824 -47.8913)
(-0.448656 -0.657429 -47.9022)
(-0.362749 -0.606383 -47.905)
(-0.30963 -0.55386 -47.9003)
(-0.273244 -0.510309 -47.8919)
(-0.223385 -0.4652 -47.885)
(-0.186062 -0.395416 -47.8492)
(-0.15884 -0.333773 -47.7842)
(-0.149523 -0.273325 -47.7234)
(-0.168828 -0.243721 -47.6577)
(-0.170621 -0.255354 -47.5706)
(-0.157338 -0.257152 -47.474)
(-0.148335 -0.245385 -47.3672)
(-0.175136 -0.308421 -47.2289)
(-1.31474 0.779119 -49.4124)
(-1.21408 -0.590086 -48.7758)
(-0.934703 -0.954214 -48.1599)
(-0.855883 -0.914845 -47.9011)
(-0.706464 -0.802241 -47.812)
(-0.53735 -0.72471 -47.852)
(-0.437071 -0.666579 -47.8829)
(-0.351433 -0.615378 -47.8961)
(-0.301246 -0.561972 -47.8936)
(-0.267211 -0.51786 -47.8859)
(-0.219231 -0.47278 -47.8786)
(-0.183229 -0.401888 -47.8411)
(-0.157119 -0.340195 -47.7746)
(-0.149131 -0.280127 -47.713)
(-0.168955 -0.251785 -47.6478)
(-0.170659 -0.265438 -47.561)
(-0.157371 -0.26759 -47.4639)
(-0.148389 -0.257221 -47.3605)
(-0.176131 -0.318736 -47.2271)
(-1.40543 0.716431 -49.3401)
(-1.22113 -0.623484 -48.6552)
(-0.897634 -0.978517 -48.0885)
(-0.810762 -0.921151 -47.9191)
(-0.675427 -0.806798 -47.8606)
(-0.526159 -0.729993 -47.8884)
(-0.43509 -0.669267 -47.8962)
(-0.353185 -0.617803 -47.8954)
(-0.303736 -0.565472 -47.8872)
(-0.269442 -0.522756 -47.8764)
(-0.220958 -0.478284 -47.8662)
(-0.185068 -0.409183 -47.8261)
(-0.159319 -0.349236 -47.7581)
(-0.151477 -0.291788 -47.6946)
(-0.170471 -0.266553 -47.6278)
(-0.171549 -0.281318 -47.5407)
(-0.158042 -0.284433 -47.4446)
(-0.149656 -0.273813 -47.3371)
(-0.178533 -0.328248 -47.1989)
(-1.50092 0.707093 -49.3344)
(-1.24674 -0.640673 -48.6639)
(-0.913167 -0.99565 -48.1037)
(-0.830456 -0.922562 -47.8846)
(-0.683494 -0.813539 -47.8067)
(-0.522038 -0.737756 -47.8458)
(-0.427016 -0.680055 -47.8714)
(-0.345149 -0.629036 -47.8806)
(-0.298289 -0.576319 -47.8743)
(-0.266104 -0.533499 -47.8641)
(-0.219325 -0.489531 -47.8536)
(-0.184487 -0.419948 -47.8124)
(-0.159467 -0.360593 -47.7433)
(-0.152357 -0.303872 -47.6796)
(-0.171725 -0.27996 -47.6133)
(-0.172638 -0.296832 -47.5265)
(-0.15943 -0.301432 -47.4289)
(-0.151616 -0.293185 -47.3227)
(-0.181504 -0.344734 -47.1886)
(-1.58998 0.646913 -49.264)
(-1.25129 -0.675566 -48.5536)
(-0.879015 -1.01567 -48.035)
(-0.78797 -0.927421 -47.8984)
(-0.654131 -0.817481 -47.8518)
(-0.512365 -0.742723 -47.8804)
(-0.426967 -0.683136 -47.8835)
(-0.348893 -0.632148 -47.8779)
(-0.302594 -0.580739 -47.8653)
(-0.269744 -0.539603 -47.8519)
(-0.222011 -0.496757 -47.8388)
(-0.186983 -0.42963 -47.7957)
(-0.162118 -0.372328 -47.7256)
(-0.155097 -0.318408 -47.6603)
(-0.173473 -0.297266 -47.5922)
(-0.173814 -0.315969 -47.5043)
(-0.160774 -0.322145 -47.4061)
(-0.154078 -0.313989 -47.2945)
(-0.184906 -0.361117 -47.1541)
(-1.67796 0.640935 -49.2554)
(-1.27097 -0.692611 -48.5725)
(-0.893156 -1.02748 -48.066)
(-0.809383 -0.926614 -47.8765)
(-0.665469 -0.821392 -47.8051)
(-0.512356 -0.74797 -47.8406)
(-0.422349 -0.691694 -47.8598)
(-0.343307 -0.641647 -47.8643)
(-0.298461 -0.590251 -47.8545)
(-0.266844 -0.549405 -47.8425)
(-0.220234 -0.507456 -47.8301)
(-0.185894 -0.44023 -47.7871)
(-0.161472 -0.38365 -47.7173)
(-0.154884 -0.330285 -47.6526)
(-0.173725 -0.31056 -47.5854)
(-0.174256 -0.331584 -47.4971)
(-0.162214 -0.339811 -47.3956)
(-0.156456 -0.334992 -47.2832)
(-0.188174 -0.382822 -47.1456)
(-1.76836 0.582777 -49.1931)
(-1.27505 -0.726991 -48.4784)
(-0.864403 -1.0414 -48.0045)
(-0.771802 -0.927522 -47.8907)
(-0.638947 -0.821899 -47.8519)
(-0.504226 -0.749434 -47.8792)
(-0.423122 -0.691661 -47.8774)
(-0.34698 -0.64168 -47.8679)
(-0.301832 -0.591517 -47.8525)
(-0.268799 -0.552263 -47.8383)
(-0.220736 -0.511504 -47.8246)
(-0.185973 -0.446479 -47.7806)
(-0.161679 -0.391487 -47.7107)
(-0.155509 -0.340377 -47.6452)
(-0.173665 -0.322687 -47.5764)
(-0.17412 -0.345854 -47.4861)
(-0.162651 -0.356466 -47.3826)
(-0.158241 -0.353319 -47.264)
(-0.190498 -0.401725 -47.1179)
(-1.8525 0.57711 -49.1858)
(-1.29253 -0.743937 -48.5089)
(-0.880671 -1.0481 -48.0508)
(-0.796161 -0.924022 -47.8823)
(-0.652881 -0.82202 -47.8154)
(-0.506415 -0.750561 -47.8471)
(-0.419206 -0.695844 -47.8613)
(-0.340577 -0.646714 -47.8635)
(-0.295588 -0.596424 -47.8527)
(-0.263035 -0.557273 -47.8415)
(-0.215803 -0.517236 -47.8298)
(-0.1817 -0.451658 -47.7871)
(-0.157949 -0.39674 -47.7187)
(-0.152321 -0.345243 -47.6547)
(-0.17134 -0.328307 -47.5876)
(-0.172538 -0.353197 -47.4972)
(-0.162477 -0.366408 -47.3904)
(-0.159006 -0.367837 -47.2708)
(-0.191715 -0.419823 -47.1269)
(-1.94647 0.517199 -49.1321)
(-1.30084 -0.780472 -48.4304)
(-0.8599 -1.0589 -47.9958)
(-0.763397 -0.923496 -47.8977)
(-0.626953 -0.820684 -47.8659)
(-0.496524 -0.749363 -47.8933)
(-0.417012 -0.692821 -47.8894)
(-0.34044 -0.643025 -47.8792)
(-0.294673 -0.593181 -47.8642)
(-0.260563 -0.554942 -47.8521)
(-0.212022 -0.515401 -47.84)
(-0.177693 -0.450875 -47.797)
(-0.154362 -0.396429 -47.729)
(-0.149698 -0.346212 -47.6647)
(-0.168576 -0.330128 -47.5967)
(-0.170132 -0.356 -47.5052)
(-0.16054 -0.371752 -47.398)
(-0.158325 -0.375346 -47.2742)
(-0.19074 -0.42931 -47.1221)
(-2.0321 0.50561 -49.1238)
(-1.31992 -0.802033 -48.4688)
(-0.879186 -1.06616 -48.0541)
(-0.788367 -0.92261 -47.9015)
(-0.638968 -0.821867 -47.8409)
(-0.495999 -0.750405 -47.8718)
(-0.409299 -0.696027 -47.8849)
(-0.329657 -0.646287 -47.888)
(-0.283816 -0.595593 -47.8789)
(-0.250408 -0.556853 -47.8706)
(-0.203121 -0.517304 -47.8607)
(-0.169891 -0.451435 -47.8192)
(-0.147486 -0.396389 -47.7531)
(-0.14357 -0.345106 -47.691)
(-0.163571 -0.329069 -47.626)
(-0.165979 -0.355118 -47.5366)
(-0.157777 -0.372038 -47.429)
(-0.156349 -0.37877 -47.3062)
(-0.188256 -0.434394 -47.1605)
(-2.13382 0.438012 -49.0748)
(-1.33236 -0.847463 -48.4031)
(-0.863004 -1.0825 -48.0059)
(-0.755849 -0.929139 -47.9203)
(-0.608107 -0.826545 -47.8982)
(-0.479278 -0.754075 -47.9289)
(-0.400189 -0.697428 -47.9268)
(-0.323262 -0.646244 -47.9186)
(-0.277592 -0.595095 -47.9054)
(-0.243529 -0.556356 -47.8955)
(-0.195655 -0.516354 -47.8846)
(-0.162651 -0.450356 -47.8421)
(-0.140934 -0.394902 -47.7761)
(-0.138256 -0.344434 -47.714)
(-0.158312 -0.328363 -47.6495)
(-0.161129 -0.353597 -47.5614)
(-0.153124 -0.371124 -47.4568)
(-0.15255 -0.377763 -47.3342)
(-0.183189 -0.432466 -47.1845)
(-2.22415 0.41428 -49.063)
(-1.34703 -0.881518 -48.4489)
(-0.877886 -1.10035 -48.0786)
(-0.774908 -0.942249 -47.9404)
(-0.611842 -0.839802 -47.8898)
(-0.471079 -0.76652 -47.9233)
(-0.385869 -0.711877 -47.9378)
(-0.307336 -0.660699 -47.9427)
(-0.262877 -0.608462 -47.9346)
(-0.230538 -0.568682 -47.9269)
(-0.184569 -0.52785 -47.9166)
(-0.153033 -0.459816 -47.8742)
(-0.132364 -0.403282 -47.8091)
(-0.130264 -0.351372 -47.7493)
(-0.151176 -0.334447 -47.6891)
(-0.154516 -0.357771 -47.6064)
(-0.147681 -0.373154 -47.5057)
(-0.147466 -0.379537 -47.3889)
(-0.176954 -0.431721 -47.2526)
(-2.32997 0.334101 -49.0181)
(-1.35029 -0.94285 -48.4001)
(-0.854461 -1.13028 -48.0453)
(-0.735158 -0.968688 -47.9715)
(-0.570094 -0.863941 -47.9623)
(-0.444355 -0.789755 -47.998)
(-0.369421 -0.733629 -47.9978)
(-0.296179 -0.681659 -47.9898)
(-0.253865 -0.629207 -47.9751)
(-0.222042 -0.589039 -47.9634)
(-0.17605 -0.546986 -47.9496)
(-0.144803 -0.47799 -47.904)
(-0.124558 -0.420342 -47.8376)
(-0.123361 -0.368546 -47.7769)
(-0.143989 -0.350446 -47.7178)
(-0.147525 -0.370691 -47.6385)
(-0.140541 -0.383178 -47.5444)
(-0.140496 -0.385159 -47.4342)
(-0.168305 -0.430985 -47.3011)
(-2.41144 0.295575 -49.0044)
(-1.34124 -0.991873 -48.4604)
(-0.851205 -1.16428 -48.1409)
(-0.740981 -1.00477 -48.0179)
(-0.562096 -0.900544 -47.9788)
(-0.428219 -0.826614 -48.014)
(-0.350782 -0.77394 -48.0274)
(-0.27875 -0.723973 -48.0294)
(-0.239248 -0.671913 -48.0167)
(-0.209806 -0.631681 -48.0043)
(-0.165827 -0.589346 -47.9883)
(-0.135841 -0.518698 -47.9401)
(-0.116217 -0.460244 -47.8725)
(-0.114989 -0.407221 -47.8124)
(-0.135761 -0.387505 -47.7567)
(-0.139217 -0.40461 -47.6836)
(-0.132981 -0.411904 -47.5965)
(-0.132718 -0.408458 -47.4966)
(-0.159697 -0.445233 -47.3852)
(-2.49019 0.206851 -48.9626)
(-1.31117 -1.06313 -48.4339)
(-0.806103 -1.20662 -48.1281)
(-0.688264 -1.05029 -48.0685)
(-0.510876 -0.946601 -48.0706)
(-0.395804 -0.87351 -48.1066)
(-0.332625 -0.821591 -48.1029)
(-0.268749 -0.773621 -48.0883)
(-0.232677 -0.723511 -48.0654)
(-0.203955 -0.684843 -48.0459)
(-0.159699 -0.642878 -48.0238)
(-0.129408 -0.572394 -47.97)
(-0.109389 -0.514094 -47.8986)
(-0.108297 -0.462897 -47.8354)
(-0.128181 -0.442765 -47.7786)
(-0.13149 -0.457592 -47.7072)
(-0.124742 -0.462189 -47.6266)
(-0.124047 -0.452175 -47.5359)
(-0.150313 -0.478305 -47.4316)
(-2.51179 0.167177 -48.9352)
(-1.25146 -1.10769 -48.5011)
(-0.772503 -1.23898 -48.2382)
(-0.680385 -1.09113 -48.1312)
(-0.499222 -0.991159 -48.0974)
(-0.381398 -0.919684 -48.1256)
(-0.318993 -0.873466 -48.1298)
(-0.258059 -0.830431 -48.1216)
(-0.224735 -0.783821 -48.0986)
(-0.197679 -0.74863 -48.0768)
(-0.154601 -0.709726 -48.0513)
(-0.124714 -0.640451 -47.9935)
(-0.104479 -0.584238 -47.9192)
(-0.1026 -0.536018 -47.854)
(-0.121849 -0.519769 -47.7977)
(-0.124369 -0.537492 -47.729)
(-0.117915 -0.542477 -47.653)
(-0.116786 -0.530112 -47.5701)
(-0.144183 -0.549658 -47.4858)
(-2.49536 0.0937361 -48.8532)
(-1.16405 -1.15181 -48.4488)
(-0.699502 -1.25141 -48.1933)
(-0.623851 -1.10929 -48.1433)
(-0.457661 -1.01348 -48.1422)
(-0.36188 -0.943821 -48.1653)
(-0.31438 -0.899801 -48.148)
(-0.260884 -0.860578 -48.1222)
(-0.229554 -0.818865 -48.0903)
(-0.201838 -0.789497 -48.0639)
(-0.157334 -0.755644 -48.035)
(-0.12601 -0.690284 -47.9741)
(-0.104283 -0.637631 -47.8976)
(-0.101632 -0.595226 -47.8297)
(-0.119423 -0.585579 -47.7708)
(-0.121484 -0.610995 -47.6999)
(-0.114291 -0.626744 -47.6251)
(-0.112735 -0.623942 -47.5464)
(-0.141524 -0.64809 -47.4599)
(-2.39538 0.080712 -48.709)
(-1.05396 -1.14273 -48.3875)
(-0.652638 -1.22509 -48.1636)
(-0.635587 -1.08761 -48.0511)
(-0.479812 -0.996625 -47.9981)
(-0.379953 -0.929313 -48.0036)
(-0.328077 -0.891099 -47.9918)
(-0.272517 -0.856819 -47.976)
(-0.240674 -0.820428 -47.9511)
(-0.212636 -0.798034 -47.9309)
(-0.167935 -0.771978 -47.9073)
(-0.13592 -0.711971 -47.8517)
(-0.11323 -0.664256 -47.7801)
(-0.109205 -0.626155 -47.7172)
(-0.125957 -0.624492 -47.6624)
(-0.126629 -0.661579 -47.5942)
(-0.119075 -0.691459 -47.5217)
(-0.117299 -0.7079 -47.4455)
(-0.14917 -0.758474 -47.3671)
(-2.30151 0.0449516 -48.4008)
(-0.977851 -1.12775 -48.0403)
(-0.613999 -1.17014 -47.7782)
(-0.640839 -1.04366 -47.6934)
(-0.502588 -0.959039 -47.6603)
(-0.411519 -0.893112 -47.6585)
(-0.362411 -0.856357 -47.6304)
(-0.306167 -0.826548 -47.6055)
(-0.272142 -0.796634 -47.5822)
(-0.241555 -0.782064 -47.5697)
(-0.194272 -0.763681 -47.5557)
(-0.160178 -0.709387 -47.511)
(-0.135724 -0.664225 -47.4501)
(-0.130925 -0.624765 -47.3964)
(-0.146773 -0.623923 -47.3498)
(-0.146992 -0.665948 -47.2882)
(-0.138288 -0.707226 -47.2213)
(-0.136401 -0.744087 -47.1511)
(-0.170343 -0.828343 -47.0647)
(-2.33036 0.0284843 -47.9297)
(-0.997337 -1.11578 -47.5042)
(-0.67277 -1.13459 -47.2013)
(-0.748707 -1.01943 -47.028)
(-0.602734 -0.944184 -46.9375)
(-0.485938 -0.878891 -46.9209)
(-0.416089 -0.846074 -46.9062)
(-0.349718 -0.820061 -46.8994)
(-0.312137 -0.79385 -46.8908)
(-0.280753 -0.783339 -46.8928)
(-0.233973 -0.77024 -46.8929)
(-0.200433 -0.718318 -46.8609)
(-0.176663 -0.674812 -46.8134)
(-0.172027 -0.635991 -46.7711)
(-0.187364 -0.637007 -46.7381)
(-0.186147 -0.683262 -46.6923)
(-0.177051 -0.728577 -46.6383)
(-0.175731 -0.778574 -46.5766)
(-0.213301 -0.880109 -46.5004)
(-2.71311 -0.0959353 -47.3012)
(-1.21157 -1.22024 -46.6468)
(-0.806458 -1.2101 -46.2123)
(-0.858133 -1.10414 -46.0371)
(-0.688127 -1.04253 -45.9682)
(-0.554212 -0.973719 -45.9555)
(-0.474254 -0.938431 -45.9337)
(-0.403466 -0.913178 -45.9225)
(-0.36282 -0.889164 -45.9183)
(-0.329437 -0.879901 -45.9301)
(-0.281915 -0.868562 -45.9423)
(-0.248479 -0.81809 -45.9211)
(-0.225506 -0.775965 -45.8842)
(-0.222107 -0.735104 -45.8483)
(-0.237886 -0.734656 -45.8212)
(-0.238411 -0.77908 -45.7803)
(-0.230215 -0.820172 -45.7316)
(-0.23124 -0.867844 -45.6736)
(-0.271778 -0.967513 -45.5908)
(-3.67242 -0.424548 -46.9019)
(-1.68595 -1.58264 -45.9815)
(-1.06086 -1.57379 -45.4633)
(-1.02925 -1.50252 -45.2372)
(-0.793367 -1.46523 -45.1429)
(-0.611896 -1.40016 -45.1264)
(-0.504444 -1.36701 -45.1161)
(-0.424372 -1.3414 -45.1104)
(-0.381983 -1.3157 -45.1023)
(-0.350374 -1.3041 -45.1068)
(-0.307956 -1.28625 -45.1068)
(-0.280756 -1.22323 -45.0605)
(-0.264022 -1.1685 -44.9955)
(-0.265924 -1.11356 -44.9184)
(-0.284312 -1.09817 -44.8511)
(-0.286861 -1.12384 -44.7769)
(-0.282684 -1.13283 -44.6953)
(-0.288908 -1.14157 -44.5997)
(-0.335709 -1.1853 -44.4988)
(-5.24201 -1.2208 -47.8094)
(-2.40202 -2.62627 -46.9862)
(-1.22147 -2.63607 -46.5597)
(-0.988078 -2.61051 -46.5197)
(-0.706167 -2.64006 -46.5547)
(-0.519025 -2.60596 -46.5846)
(-0.415068 -2.58235 -46.566)
(-0.33986 -2.55964 -46.5305)
(-0.298738 -2.53501 -46.484)
(-0.268613 -2.52105 -46.4423)
(-0.233009 -2.49256 -46.3868)
(-0.213435 -2.41845 -46.2722)
(-0.203898 -2.36027 -46.1284)
(-0.213591 -2.29739 -45.9485)
(-0.236457 -2.2773 -45.7514)
(-0.246009 -2.29896 -45.5229)
(-0.250725 -2.29909 -45.2735)
(-0.267046 -2.27761 -44.9927)
(-0.320667 -2.24744 -44.7084)
(-5.53236 -2.33671 -51.4804)
(-2.38537 -4.00619 -51.9081)
(-0.874893 -4.05971 -52.1035)
(-0.594264 -4.09856 -52.3274)
(-0.368952 -4.20164 -52.4918)
(-0.227869 -4.24193 -52.5999)
(-0.147182 -4.27954 -52.6369)
(-0.0839225 -4.30698 -52.6368)
(-0.0514206 -4.32456 -52.5887)
(-0.0272856 -4.35269 -52.5202)
(0.000773766 -4.36468 -52.4264)
(0.0132312 -4.33438 -52.2754)
(0.0150055 -4.33258 -52.0756)
(-0.00593075 -4.36269 -51.8439)
(-0.0370566 -4.46494 -51.5754)
(-0.0491236 -4.65015 -51.2427)
(-0.057624 -4.84499 -50.8596)
(-0.078021 -5.03062 -50.4076)
(-0.114495 -5.23403 -49.9171)
(-2.03203 -0.265496 -54.7581)
(-1.03324 -1.19194 -56.2619)
(-0.0754338 -1.11003 -56.6805)
(-0.00129735 -1.01099 -57.0632)
(0.0387864 -1.02014 -57.3103)
(0.0729395 -1.00078 -57.476)
(0.0981839 -1.00339 -57.556)
(0.124539 -1.00561 -57.5918)
(0.132712 -1.02124 -57.5594)
(0.14685 -1.05048 -57.4859)
(0.170668 -1.06829 -57.3799)
(0.17934 -1.0518 -57.2493)
(0.179334 -1.08238 -57.1078)
(0.162302 -1.16689 -56.9861)
(0.132398 -1.36075 -56.8671)
(0.119932 -1.68978 -56.7068)
(0.111607 -2.05362 -56.4694)
(0.0909613 -2.43976 -56.1481)
(0.0825975 -2.87436 -55.7331)
(1.17725 1.49853 -54.7109)
(0.187951 0.822078 -56.4242)
(0.315464 0.9597 -56.7965)
(0.231497 1.11405 -57.0511)
(0.161139 1.09746 -57.2415)
(0.148536 1.12408 -57.3859)
(0.139341 1.14166 -57.4569)
(0.135371 1.17452 -57.4772)
(0.116631 1.1852 -57.4657)
(0.115302 1.17917 -57.4051)
(0.138598 1.17957 -57.3)
(0.159903 1.24385 -57.1847)
(0.177055 1.2846 -57.1152)
(0.175436 1.28235 -57.1085)
(0.160813 1.20292 -57.1994)
(0.15856 0.993208 -57.3831)
(0.153638 0.704002 -57.5533)
(0.140188 0.370335 -57.7337)
(0.14891 -0.0656352 -57.934)
(3.35685 3.03452 -51.3344)
(0.964683 3.00878 -52.4578)
(0.510042 3.15634 -52.7232)
(0.331416 3.33459 -52.9175)
(0.211458 3.38697 -53.1208)
(0.140813 3.46325 -53.2959)
(0.0928655 3.51275 -53.4062)
(0.0799578 3.55535 -53.4798)
(0.0603437 3.60109 -53.5115)
(0.0474517 3.62729 -53.509)
(0.0702259 3.64903 -53.4775)
(0.103695 3.74769 -53.432)
(0.135116 3.86238 -53.4323)
(0.149666 3.96826 -53.4748)
(0.155108 4.08784 -53.6024)
(0.163327 4.23339 -53.8262)
(0.163101 4.39072 -54.0666)
(0.157807 4.59099 -54.3477)
(0.140931 4.8412 -54.6515)
(2.97526 2.22946 -46.0388)
(1.17301 2.14183 -46.3476)
(0.582784 2.28366 -46.5826)
(0.370681 2.45584 -46.7719)
(0.248069 2.4903 -46.9563)
(0.175539 2.57092 -47.1563)
(0.116694 2.63313 -47.3288)
(0.0789562 2.7005 -47.4986)
(0.0330826 2.74144 -47.6488)
(0.0117291 2.75237 -47.8097)
(0.0324579 2.76626 -47.9813)
(0.0723991 2.8724 -48.1107)
(0.110922 3.01114 -48.2308)
(0.130001 3.15929 -48.3456)
(0.14515 3.38731 -48.3803)
(0.158878 3.75513 -48.2536)
(0.15688 4.20418 -48.0919)
(0.146432 4.728 -47.8632)
(0.112063 5.30528 -47.5449)
(0.75879 -0.819486 -47.9434)
(1.22426 -1.30602 -47.832)
(0.876526 -1.15195 -47.9056)
(0.576522 -0.911381 -48.0404)
(0.401573 -0.862333 -48.2025)
(0.290824 -0.768311 -48.3579)
(0.210292 -0.707222 -48.4788)
(0.176825 -0.646489 -48.6031)
(0.138444 -0.577419 -48.7346)
(0.11716 -0.53155 -48.9088)
(0.128656 -0.453038 -49.102)
(0.149424 -0.295303 -49.2412)
(0.172652 -0.152599 -49.279)
(0.15885 -0.00966951 -49.2449)
(0.12097 -0.0208024 -49.2326)
(0.104325 -0.268763 -49.2261)
(0.0921453 -0.574524 -49.2004)
(0.0656472 -0.911762 -49.1746)
(0.0732119 -1.24528 -49.1648)
(0.613259 1.33303 -48.393)
(0.860019 1.03877 -48.2291)
(0.670824 1.13934 -48.1512)
(0.468507 1.24521 -48.1495)
(0.342144 1.20594 -48.202)
(0.269311 1.24414 -48.274)
(0.211376 1.26311 -48.3414)
(0.173565 1.29812 -48.4138)
(0.13475 1.32924 -48.4924)
(0.118672 1.36387 -48.6064)
(0.11827 1.40746 -48.7303)
(0.116813 1.40041 -48.8095)
(0.118991 1.37716 -48.8188)
(0.115463 1.35632 -48.782)
(0.115172 1.39375 -48.7267)
(0.119305 1.51565 -48.6436)
(0.111347 1.65645 -48.5268)
(0.092243 1.83438 -48.4109)
(0.0759 2.02009 -48.3189)
(-0.3341 -1.05216 -49.6947)
(0.738836 -1.62027 -49.6863)
(0.790432 -1.5311 -49.5921)
(0.571678 -1.32731 -49.6122)
(0.413735 -1.31792 -49.6906)
(0.311136 -1.24503 -49.7659)
(0.237464 -1.20141 -49.8082)
(0.208651 -1.14928 -49.8489)
(0.180325 -1.07633 -49.8914)
(0.165333 -1.00648 -49.9617)
(0.163414 -0.887121 -50.0248)
(0.158633 -0.773492 -50.0622)
(0.158491 -0.696909 -50.0455)
(0.130623 -0.614664 -50.0001)
(0.0878864 -0.653714 -49.9906)
(0.0690278 -0.872713 -50.0154)
(0.056826 -1.12136 -50.039)
(0.0331233 -1.36161 -50.0966)
(0.0434097 -1.55743 -50.2047)
(0.028196 1.08781 -49.3001)
(0.523661 0.706329 -49.4304)
(0.550374 0.752547 -49.3205)
(0.434295 0.831432 -49.2581)
(0.336107 0.772276 -49.2682)
(0.271486 0.798751 -49.3014)
(0.219208 0.810098 -49.3276)
(0.186472 0.841272 -49.3545)
(0.156555 0.877598 -49.3798)
(0.143829 0.91447 -49.4201)
(0.133768 0.951392 -49.45)
(0.116276 0.926451 -49.4631)
(0.103977 0.875151 -49.4416)
(0.0912644 0.83178 -49.4055)
(0.086136 0.847925 -49.3653)
(0.0884938 0.960321 -49.3136)
(0.0804115 1.10779 -49.243)
(0.0625552 1.28664 -49.1844)
(0.0495791 1.46657 -49.1522)
(-0.616859 -1.1004 -50.2447)
(0.483108 -1.69488 -50.4131)
(0.65304 -1.64209 -50.3525)
(0.512468 -1.45338 -50.3479)
(0.388481 -1.46093 -50.3948)
(0.295903 -1.39205 -50.4383)
(0.22861 -1.3527 -50.4483)
(0.20458 -1.30386 -50.4533)
(0.181756 -1.23708 -50.4519)
(0.167374 -1.19292 -50.46)
(0.161132 -1.11699 -50.4575)
(0.150629 -1.00542 -50.4554)
(0.14201 -0.931103 -50.4323)
(0.107508 -0.843056 -50.3926)
(0.0625817 -0.871373 -50.3913)
(0.0439916 -1.05381 -50.4253)
(0.033414 -1.24283 -50.4589)
(0.0130652 -1.41932 -50.5199)
(0.023836 -1.54827 -50.6203)
(-0.162496 1.01975 -49.6456)
(0.377782 0.635997 -49.8647)
(0.442798 0.654596 -49.7996)
(0.37084 0.717498 -49.7294)
(0.302295 0.645292 -49.7118)
(0.250424 0.666665 -49.7169)
(0.206245 0.67372 -49.7174)
(0.178238 0.698495 -49.719)
(0.152444 0.72199 -49.7149)
(0.140805 0.725775 -49.719)
(0.130306 0.725204 -49.7235)
(0.111481 0.706739 -49.7297)
(0.0929797 0.658093 -49.7142)
(0.0742221 0.619304 -49.6878)
(0.0664236 0.63874 -49.6607)
(0.0681358 0.758304 -49.6227)
(0.0603681 0.912024 -49.5651)
(0.0439334 1.08328 -49.5187)
(0.0326496 1.23999 -49.4934)
(-0.752701 -1.12641 -50.4869)
(0.342649 -1.72453 -50.6793)
(0.554773 -1.68168 -50.6358)
(0.443646 -1.49913 -50.6267)
(0.341649 -1.52522 -50.6538)
(0.262544 -1.4658 -50.6742)
(0.206378 -1.4369 -50.6648)
(0.189151 -1.40329 -50.6529)
(0.170766 -1.36299 -50.6359)
(0.159364 -1.36088 -50.6319)
(0.156739 -1.3102 -50.6253)
(0.148053 -1.17204 -50.6206)
(0.134133 -1.08186 -50.5968)
(0.093599 -0.96968 -50.5603)
(0.0465031 -0.979128 -50.5636)
(0.0278733 -1.12947 -50.5928)
(0.0189169 -1.27733 -50.6168)
(0.00159029 -1.40977 -50.6666)
(0.0120974 -1.49576 -50.7509)