/*--------------------------------*- C++ -*----------------------------------*\
| =========                 |                                                 |
| \\      /  F ield         | OpenFOAM: The Open Source CFD Toolbox           |
|  \\    /   O peration     | Version:  2.1.x                                 |
|   \\  /    A nd           | Web:      www.OpenFOAM.org                      |
|    \\/     M anipulation  |                                                 |
\*---------------------------------------------------------------------------*/
FoamFile
{
    version     2.0;
    format      ascii;
    class       volScalarField;
    location    "2";
    object      p;
}
// * * * * * * * * * * * * * * * * * * * * * * * * * * * * * * * * * * * * * //

dimensions      [0 2 -2 0 0 0 0];

internalField   nonuniform List<scalar> 
51100
(
-0.87222795
-1.4660326
-2.0257742
-2.5364811
-2.9836662
-3.3567241
-3.6486277
-3.8556437
-3.9778556
-4.0198045
-3.9904637
-3.9023724
-3.7700862
-3.6084995
-3.4315513
-3.2514183
-3.0779175
-2.9181114
-2.7758999
-2.6535429
-2.5504927
-2.465368
-2.396067
-2.3402304
-2.2957525
-2.2607998
-2.2330008
-2.2105824
-2.1920971
-2.1764215
-2.1627805
-2.1507564
-2.1402272
-2.131277
-2.1240875
-2.1188398
-2.1156283
-2.1143223
-2.1143195
-2.1148629
-0.60788491
-1.1832044
-1.7341753
-2.248203
-2.708308
-3.1017232
-3.4200104
-3.6578563
-3.8132921
-3.888533
-3.8902868
-3.8291332
-3.7183543
-3.5727186
-3.4069074
-3.2342808
-3.0658636
-2.9096707
-2.7705194
-2.650623
-2.5498574
-2.4668095
-2.3993569
-2.3451411
-2.3017703
-2.26699
-2.2392514
-2.2169122
-2.1984289
-2.1828273
-2.1693201
-2.1574488
-2.1470204
-2.138027
-2.1305641
-2.1247644
-2.1207402
-2.1184016
-2.1170578
-2.1152763
-0.14550829
-0.69689418
-1.2384525
-1.7524078
-2.2239379
-2.6421575
-2.9983428
-3.2849142
-3.4961801
-3.629844
-3.6880705
-3.6776608
-3.6093897
-3.4967983
-3.3549394
-3.1986355
-3.0407936
-2.8912791
-2.7565138
-2.6397103
-2.5414351
-2.4605331
-2.3949409
-2.3422383
-2.3001075
-2.2664643
-2.2395724
-2.2179031
-2.2002295
-2.1853828
-2.1725452
-2.1612777
-2.1513318
-2.1426386
-2.1352435
-2.1292546
-2.1248082
-2.1218594
-2.1196708
-2.1161167
0.25629529
-0.25475664
-0.76689941
-1.2602601
-1.7215565
-2.1423577
-2.5153186
-2.8327435
-3.0874233
-3.2742457
-3.3914378
-3.4411553
-3.4295228
-3.3662985
-3.2641484
-3.1371843
-2.9992611
-2.8623262
-2.7351484
-2.6229355
-2.5276915
-2.4491097
-2.3855106
-2.3346156
-2.2941296
-2.2619894
-2.2364366
-2.2159779
-2.1993578
-2.1854953
-2.1736419
-2.1632046
-2.1539181
-2.1456791
-2.1385046
-2.132494
-2.1278073
-2.1244387
-2.1216695
-2.1171034
0.57225105
0.10560027
-0.37034326
-0.83494373
-1.2755001
-1.6851884
-2.0581305
-2.3874454
-2.6659615
-2.8877373
-3.0491873
-3.1496695
-3.1917358
-3.1811898
-3.1268563
-3.0398835
-2.932639
-2.8172184
-2.7039019
-2.6000782
-2.509839
-2.4344345
-2.3731427
-2.3241742
-2.2854116
-2.2548581
-2.2307755
-2.2117112
-2.1964151
-2.183828
-2.1731278
-2.1637441
-2.1553103
-2.1476985
-2.1409049
-2.1350246
-2.1302341
-2.126557
-2.123325
-2.1182381
0.81607104
0.39059755
-0.048946578
-0.48300627
-0.89949343
-1.2923896
-1.6567493
-1.9864673
-2.2748625
-2.5160408
-2.7058683
-2.8424638
-2.9264322
-2.9609737
-2.9518408
-2.9070407
-2.8362294
-2.7497722
-2.6575672
-2.5678765
-2.4864764
-2.4164402
-2.3585236
-2.3119114
-2.2750158
-2.2460815
-2.2234985
-2.2058751
-2.191996
-2.1807976
-2.1714108
-2.1631992
-2.1557723
-2.1489375
-2.142671
-2.1370627
-2.1322965
-2.1284203
-2.1248376
-2.1195578
1.0042357
0.61554857
0.21030511
-0.19390577
-0.58595147
-0.96024715
-1.312313
-1.6366197
-1.926976
-2.1777103
-2.384563
-2.5451264
-2.6590356
-2.7280551
-2.7560552
-2.7488132
-2.713609
-2.6586326
-2.5922238
-2.5220405
-2.4542706
-2.3931368
-2.3408182
-2.2977716
-2.2633159
-2.2362407
-2.215234
-2.1990619
-2.1866014
-2.176798
-2.1687624
-2.1617991
-2.1554547
-2.149497
-2.1438715
-2.1386564
-2.1340332
-2.1300714
-2.1262719
-2.121048
1.1491651
0.79349735
0.42012958
0.044382624
-0.32379036
-0.67914452
-1.0174156
-1.3334442
-1.6214318
-1.8759362
-2.0926642
-2.2688955
-2.4036943
-2.4979939
-2.5545645
-2.5778198
-2.5734541
-2.5479598
-2.5080694
-2.4601952
-2.4099035
-2.3615176
-2.3179212
-2.2805949
-2.2498744
-2.225346
-2.2062295
-2.191617
-2.1805651
-2.1721245
-2.1654085
-2.159688
-2.1544536
-2.1494262
-2.1445192
-2.1397925
-2.1354156
-2.1314786
-2.1276092
-2.1226484
1.2603041
0.9343909
0.59046931
0.24153968
-0.10368182
-0.44028096
-0.7641232
-1.0703207
-1.3534075
-1.608147
-1.8302263
-2.0166797
-2.1661323
-2.2789213
-2.3570791
-2.4041524
-2.4248492
-2.4245734
-2.4089101
-2.3831576
-2.3519553
-2.319055
-2.2872385
-2.2583462
-2.2333903
-2.2127253
-2.1962453
-2.1835476
-2.1740274
-2.1669411
-2.1614966
-2.1569744
-2.1528325
-2.1487499
-2.1446059
-2.1404371
-2.1363921
-2.1325815
-2.1287889
-2.1242732
1.3448167
1.0457665
0.72893848
0.40507055
0.08169145
-0.23660535
-0.54580332
-0.84125811
-1.1178142
-1.3704391
-1.5948218
-1.7877918
-1.947598
-2.0740699
-2.1686415
-2.2342052
-2.2747902
-2.2951102
-2.3000489
-2.2941857
-2.2814391
-2.2648927
-2.2468127
-2.2287967
-2.2119521
-2.1970283
-2.1844761
-2.1744593
-2.1668496
-2.16125
-2.1570799
-2.153715
-2.1506297
-2.1474808
-2.1441189
-2.140555
-2.1369103
-2.1333154
-2.1297351
-2.1258287
1.4082022
1.1334427
0.84148273
0.54090953
0.23816533
-0.062452882
-0.35705893
-0.64125384
-0.9101863
-1.1590376
-1.383532
-1.5803456
-1.7474075
-1.8840981
-1.9913142
-2.071375
-2.1277492
-2.1646402
-2.1864857
-2.1974659
-2.2011071
-2.2000624
-2.1961157
-2.1903852
-2.183626
-2.1764811
-2.1695813
-2.1634856
-2.1585493
-2.1548266
-2.1520806
-2.1498987
-2.1478516
-2.1456224
-2.1430472
-2.1401189
-2.1369282
-2.1336247
-2.1303708
-2.1272291
1.4547319
1.2019794
0.93281605
0.65382076
0.37047039
0.086798213
-0.19345677
-0.46615192
-0.72673815
-0.97061907
-1.1935889
-1.3922249
-1.5642002
-1.7085056
-1.8255527
-1.9171289
-1.9861833
-2.0364642
-2.0720562
-2.096896
-2.114346
-2.1269067
-2.1361327
-2.1427782
-2.1471288
-2.1493851
-2.1499233
-2.1493306
-2.1482467
-2.1471497
-2.1462291
-2.1454051
-2.1444541
-2.1431546
-2.1413771
-2.1391095
-2.1364173
-2.1334658
-2.1306127
-2.1284403
1.4877551
1.2549843
1.0067085
0.74765835
0.48247106
0.21495065
-0.051325852
-0.31248318
-0.56427212
-0.80232348
-1.0225295
-1.2214194
-1.3964729
-1.546356
-1.6710512
-1.7718566
-1.8512257
-1.9124626
-1.9593095
-1.9954933
-2.0242994
-2.0482422
-2.0688904
-2.0868967
-2.1022454
-2.1146566
-2.1239926
-2.1304864
-2.1347106
-2.1373574
-2.1389956
-2.1399438
-2.1402919
-2.1400135
-2.1390769
-2.1375063
-2.1353584
-2.1328106
-2.1303668
-2.1294747
1.5099263
1.2953325
1.0661927
0.8255568
0.57734063
0.3251507
0.07239123
-0.17733721
-0.42008096
-0.65169913
-0.86820321
-1.0661165
-1.2427822
-1.3966034
-1.527194
-1.6354115
-1.7232446
-1.7935612
-1.8497488
-1.8953031
-1.933426
-1.9666869
-1.9967954
-2.0245264
-2.0498326
-2.0721549
-2.0908539
-2.1056001
-2.1165556
-2.1242932
-2.1295519
-2.1329914
-2.1350671
-2.1360424
-2.136068
-2.1352693
-2.1337322
-2.1316503
-2.1295039
-2.1304347
1.5233841
1.3253337
1.1137238
0.89008013
0.6576988
0.42001566
0.18025518
-0.058259271
-0.29186262
-0.51664064
-0.72873931
-0.9247098
-1.1018064
-1.2582255
-1.3932705
-1.507411
-1.6022099
-1.6801172
-1.7441589
-1.7975694
-1.8434229
-1.8843098
-1.9220941
-1.9577764
-1.9914922
-2.0226792
-2.050416
-2.0738513
-2.0925607
-2.1066843
-2.1168173
-2.1237589
-2.1282678
-2.1309391
-2.1321835
-2.13231
-2.1314876
-2.129953
-2.1275842
-2.1314537
1.5298395
1.3468584
1.1513085
0.94334093
0.725721
0.50173502
0.27442282
0.046832497
-0.17764994
-0.39533307
-0.60250811
-0.79578044
-0.97235444
-1.1302684
-1.2685676
-1.3873856
-1.4879027
-1.572179
-1.6428847
-1.7029739
-1.7553488
-1.8025619
-1.8465798
-1.8886267
-1.9291143
-1.9676893
-2.0034275
-2.0351831
-2.0619974
-2.0834225
-2.0996196
-2.1112362
-2.1191422
-2.1242041
-2.1271193
-2.1284532
-2.1284848
-2.1274956
-2.1248244
-2.1336611
1.5306514
1.361431
1.180601
0.98709213
0.78322441
0.57215031
0.35672045
0.13971281
-0.07575382
-0.28620532
-0.48808551
-0.67807436
-0.85335794
-1.0118568
-1.1524047
-1.2748467
-1.3800236
-1.4696387
-1.546023
-1.6118455
-1.6698067
-1.7223674
-1.7715273
-1.8186739
-1.864486
-1.9089115
-1.9512367
-1.9903003
-2.0248334
-2.0538545
-2.0769465
-2.0943393
-2.1067421
-2.1151203
-2.120389
-2.1234055
-2.1246064
-2.1247456
-2.1234781
-2.1332684
1.5269235
1.3703007
1.20297
1.0227953
0.83173478
0.63281808
0.42870185
0.22190159
0.015282456
-0.18789208
-0.38422314
-0.57048092
-0.74385847
-0.90219256
-1.0441449
-1.169315
-1.2782446
-1.3723144
-1.4535388
-1.5243083
-1.5871074
-1.6442681
-1.6977626
-1.7490671
-1.7990628
-1.8479912
-1.8954441
-1.9404608
-1.9817344
-2.0179657
-2.0482066
-2.072138
-2.0900572
-2.1027919
-2.1112965
-2.1166967
-2.1195585
-2.1212364
-2.1208048
-2.1304336
1.5195607
1.3744938
1.2195498
1.0516738
0.8725391
0.68505989
0.49169463
0.29470601
0.096720179
-0.099202565
-0.2898233
-0.47201429
-0.6429957
-0.80054868
-0.94319708
-1.070332
-1.182233
-1.2799913
-1.3653293
-1.4403728
-1.5073877
-1.5685566
-1.6257805
-1.6805613
-1.7339043
-1.7862826
-1.8375883
-1.8871656
-1.933882
-1.9763877
-2.0133975
-2.0440936
-2.0682235
-2.086271
-2.0989766
-2.1076384
-2.1127814
-2.1164825
-2.116822
-2.1275944
1.5093064
1.3748564
1.2312842
1.0747558
0.90672764
0.73000246
0.54683769
0.3592546
0.16965544
-0.019094797
-0.20391811
-0.38179755
-0.54999645
-0.70626372
-0.84901434
-0.97746379
-1.0916621
-1.1924419
-1.281258
-1.3599885
-1.4306854
-1.495374
-1.5558568
-1.6136165
-1.669715
-1.7247825
-1.7789488
-1.831871
-1.882694
-1.9302371
-1.9731177
-2.0102155
-2.0407417
-2.0647516
-2.0825148
-2.0953817
-2.1035483
-2.1099762
-2.1114154
-2.1239754
1.4967723
1.3720893
1.2389619
1.0929091
0.93522771
0.76861017
0.59511176
0.41652521
0.235044
0.053345812
-0.12565188
-0.29904912
-0.46416498
-0.61873572
-0.76109204
-0.89030248
-1.0062164
-1.1094362
-1.2011719
-1.2830722
-1.3569832
-1.4247737
-1.488132
-1.548495
-1.6069294
-1.6641607
-1.7204769
-1.7758008
-1.829558
-1.8808625
-1.9284237
-1.9710768
-2.0076247
-2.0377743
-2.0611369
-2.0790475
-2.0910129
-2.1009869
-2.104003
-2.118679
1.4824635
1.3667758
1.2432456
1.106869
0.95883094
0.80171139
0.63736431
0.46736796
0.2937219
0.11892437
-0.054266186
-0.22307095
-0.38487448
-0.53741671
-0.67896502
-0.80846609
-0.92559402
-1.0307467
-1.1249101
-1.2095226
-1.2862329
-1.3567594
-1.4226675
-1.4853352
-1.5457984
-1.6048353
-1.6628179
-1.719875
-1.7756512
-1.8295958
-1.8805988
-1.9276868
-1.9694159
-2.0053651
-2.0344055
-2.0578987
-2.07431
-2.0886088
-2.0937828
-2.1108862
1.466798
1.3594027
1.2446937
1.117261
0.97821547
0.83002007
0.67433009
0.51252434
0.34642268
0.17835152
0.010912744
-0.15323842
-0.3115595
-0.4618077
-0.60220484
-0.73159786
-0.84950771
-0.95615135
-1.0523097
-1.1392284
-1.2183684
-1.2913058
-1.3594786
-1.4242027
-1.4864574
-1.5470505
-1.6063774
-1.6647241
-1.7218669
-1.7775787
-1.8309206
-1.881277
-1.9270764
-1.968054
-2.0023549
-2.0315225
-2.0527363
-2.0719382
-2.079883
-2.0997503
1.4501225
1.3503779
1.2437789
1.1246191
0.99396409
0.85415345
0.70664812
0.55264299
0.39379171
0.23225618
0.070484889
-0.088991561
-0.24370924
-0.391454
-0.53041712
-0.65936523
-0.77768556
-0.88543574
-0.98320808
-1.0720736
-1.1533127
-1.2283709
-1.2985543
-1.3651206
-1.4289725
-1.4909399
-1.5513936
-1.6107481
-1.6688225
-1.7256861
-1.7804943
-1.8330814
-1.8817877
-1.9267672
-1.9655114
-1.9999594
-2.0259391
-2.0502835
-2.0615192
-2.0844562
1.4327253
1.340044
1.2409022
1.1294003
1.0065792
0.87464675
0.73487574
0.58829296
0.43639833
0.28119626
0.12498566
-0.029827448
-0.18086168
-0.325941
-0.46323883
-0.59145867
-0.70987094
-0.81839374
-0.91744547
-1.0079394
-1.0909826
-1.1679017
-1.2398677
-1.308087
-1.37337
-1.4365709
-1.4979975
-1.5581832
-1.6169122
-1.6745276
-1.730176
-1.7841739
-1.8347453
-1.8826412
-1.9247922
-1.9637276
-1.9940348
-2.0233542
-2.0381865
-2.0643766
1.4148466
1.328689
1.2364049
1.1319974
1.016495
0.89196535
0.75950045
0.61997478
0.47474608
0.32566788
0.17489387
0.024706415
-0.12259834
-0.26489036
-0.40033586
-0.52759039
-0.64582233
-0.75482834
-0.85486596
-0.94670695
-1.0312913
-1.1098386
-1.1833816
-1.2530854
-1.3196528
-1.3839718
-1.4462554
-1.5071597
-1.5663709
-1.6244941
-1.6805695
-1.73539
-1.7870018
-1.8368275
-1.881324
-1.92373
-1.9576132
-1.9913613
-2.0098172
-2.0392315
1.3966866
1.3165558
1.2305782
1.1327484
1.0240882
0.90651495
0.78094975
0.64812988
0.50928133
0.36611315
0.22063853
0.075017859
-0.068539668
-0.20795652
-0.34140063
-0.46749298
-0.58531285
-0.694552
-0.79531867
-0.88825861
-0.97414977
-1.0541176
-1.1290525
-1.2000894
-1.2678104
-1.3331484
-1.3961965
-1.4577427
-1.5173291
-1.5758176
-1.6320677
-1.6873206
-1.7393859
-1.7903448
-1.836249
-1.8810811
-1.9176268
-1.9549882
-1.9768318
-2.0091814
1.3784126
1.3038491
1.2236709
1.1319454
1.0296857
0.91865013
0.79959941
0.67314844
0.54040069
0.40292691
0.26260483
0.12147506
-0.018340984
-0.15482359
-0.28614989
-0.41091809
-0.52812969
-0.63738664
-0.73865828
-0.83247873
-0.91946888
-1.0006717
-1.0768327
-1.1490663
-1.2178238
-1.2840932
-1.3478288
-1.4099597
-1.4698541
-1.5286249
-1.5849076
-1.640351
-1.6924907
-1.7440021
-1.7905771
-1.8369142
-1.8752118
-1.9152446
-1.9400603
-1.9748169
1.3601639
1.290742
1.2158965
1.1298412
1.0335725
0.92868143
0.81578057
0.69537611
0.56845727
0.43646243
0.30113918
0.16441094
0.028311157
-0.10520251
-0.23432269
-0.35763509
-0.47407352
-0.58316361
-0.68474545
-0.77925456
-0.86715986
-0.94943231
-1.0266712
-1.099979
-1.1696684
-1.2367901
-1.3011485
-1.3638167
-1.4239762
-1.4829789
-1.5392221
-1.5947131
-1.6467063
-1.6983834
-1.7451099
-1.7922271
-1.8315019
-1.8732667
-1.9005692
-1.9370467
1.342057
1.2773804
1.2074379
1.1266552
1.0359973
0.9368815
0.82978564
0.71511977
0.5937661
0.46703646
0.33655369
0.20412698
0.071702144
-0.058828546
-0.1856785
-0.30742986
-0.42295775
-0.53172349
-0.633447
-0.72847676
-0.81713532
-0.90033031
-0.9785156
-1.0527869
-1.1233161
-1.1912177
-1.2561443
-1.3193072
-1.3797049
-1.4389049
-1.4950791
-1.550536
-1.6022712
-1.653874
-1.7004297
-1.7477979
-1.7874868
-1.830139
-1.8594625
-1.8969273
1.3241888
1.2638877
1.1984529
1.122578
1.0371775
0.94349013
0.84187334
0.73265241
0.61660874
0.49493341
0.36913001
0.2408966
0.11209213
-0.015459017
-0.13999551
-0.26010353
-0.37460781
-0.48291577
-0.58463601
-0.68003975
-0.76930973
-0.8532966
-0.93231235
-1.0074474
-1.0787357
-1.1473506
-1.2128
-1.2764179
-1.3370379
-1.3964074
-1.4525088
-1.5078831
-1.5593213
-1.6107047
-1.6569261
-1.7041731
-1.7439357
-1.7867814
-1.8177212
-1.8554951
1.3066396
1.2503677
1.1890769
1.1177756
1.0373036
0.94871866
0.85227312
0.7482173
0.63723731
0.52040919
0.39912269
0.27496813
0.14971856
0.025128768
-0.097069021
-0.21547145
-0.32886047
-0.43659852
-0.53819173
-0.63384194
-0.72359982
-0.80826274
-0.88800751
-0.96391642
-1.0358942
-1.1051609
-1.1710965
-1.2351311
-1.2959657
-1.3554796
-1.4115202
-1.4667795
-1.517927
-1.569
-1.6148377
-1.6617048
-1.7013845
-1.7439037
-1.7761143
-1.8136463
1.289476
1.236908
1.1794269
1.1123929
1.0365425
0.95275365
0.86118876
0.76203164
0.65587795
0.54369436
0.42676218
0.30656737
0.18479839
0.06313932
-0.056710034
-0.17336207
-0.28556314
-0.39263807
-0.49399952
-0.58978587
-0.67992483
-0.7651615
-0.84554722
-0.92214917
-0.99475699
-1.0646188
-1.1310115
-1.1954265
-1.2564747
-1.3161088
-1.3721097
-1.4272286
-1.478118
-1.5288184
-1.5742936
-1.6206063
-1.6601638
-1.7020095
-1.7351818
-1.7720811
1.272753
1.2235818
1.1696037
1.1065561
1.035041
0.95576007
0.86880159
0.77428964
0.67273379
0.564997
0.45225734
0.33589995
0.21753009
0.098760633
-0.018743923
-0.13361599
-0.24457315
-0.35090858
-0.45195062
-0.5477783
-0.63820674
-0.72392711
-0.80487801
-0.88210061
-0.95528829
-1.0256936
-1.0925211
-1.157282
-1.2185472
-1.2782788
-1.3342658
-1.3892228
-1.4398987
-1.4901828
-1.5353502
-1.5810008
-1.6204478
-1.6614237
-1.6952683
-1.7313015
1.2565157
1.2104506
1.1596944
1.1003757
1.0329278
0.95788399
0.87527319
0.78516525
0.6879876
0.58450515
0.47579781
0.36315334
0.2480954
0.13216567
0.016990761
-0.096085054
-0.20575715
-0.31129164
-0.411942
-0.50773017
-0.59837029
-0.68449561
-0.76594708
-0.84372594
-0.91745157
-0.98835366
-1.0555989
-1.1206749
-1.1821632
-1.2419721
-1.2979715
-1.3527497
-1.4032578
-1.4530985
-1.4980182
-1.5429545
-1.5823057
-1.6223318
-1.6565775
-1.6916403
1.2408007
1.1975655
1.1497744
1.0939481
1.0303163
0.95925494
0.88074778
0.79481445
0.70180406
0.60238904
0.49755592
0.38849866
0.27666093
0.1635137
0.050643385
-0.0606315
-0.16899046
-0.27367593
-0.3738761
-0.4695566
-0.56034307
-0.64680502
-0.72870248
-0.80698092
-0.88120972
-0.95256746
-1.0202175
-1.0855818
-1.1472998
-1.2071701
-1.263206
-1.3177944
-1.3681755
-1.4175616
-1.4622831
-1.5064953
-1.5457461
-1.5848203
-1.619224
-1.6533012
1.2256376
1.1849687
1.1399085
1.0873576
1.0273063
0.95998788
0.88535419
0.8033773
0.71433173
0.61880289
0.51768853
0.41209231
0.30337961
0.19295152
0.08235224
-0.027127183
-0.13415651
-0.23795678
-0.33766062
-0.43317678
-0.52405551
-0.61079549
-0.69309325
-0.77182215
-0.84652527
-0.91830338
-0.98634788
-1.0519787
-1.1139326
-1.1738533
-1.2299458
-1.2843407
-1.3346272
-1.3835621
-1.4281174
-1.471625
-1.5107479
-1.5489134
-1.5832708
-1.6163963
1.2110502
1.1726948
1.1301532
1.0806778
1.0239854
0.96018498
0.88920768
0.81097972
0.7257048
0.63388664
0.53633856
0.43407734
0.32839188
0.22061454
0.11224545
0.0045471535
-0.10114625
-0.20403581
-0.30320822
-0.39851391
-0.48944086
-0.57640936
-0.65906958
-0.73820718
-0.81336071
-0.88552994
-0.95396033
-1.0198413
-1.082036
-1.1420013
-1.1981665
-1.2523708
-1.3025862
-1.3510844
-1.3954883
-1.4383277
-1.4772806
-1.5145998
-1.5487506
-1.5809773
1.197057
1.160772
1.1205573
1.073973
1.0204309
0.95993712
0.89241143
0.81773499
0.73604461
0.6477674
0.55363636
0.45458479
0.35182693
0.24662778
0.14044181
0.034502551
-0.069857673
-0.17182057
-0.27043633
-0.36549501
-0.45643513
-0.54359121
-0.62658287
-0.70609462
-0.78167868
-0.85421584
-0.92302475
-0.98914461
-1.0515837
-1.1115928
-1.1678427
-1.2218649
-1.2720247
-1.3201085
-1.364362
-1.4065769
-1.4453125
-1.481851
-1.5156768
-1.5470571
1.1836719
1.1492227
1.1111631
1.0672993
1.0167108
0.95932519
0.89505787
0.82374515
0.74546101
0.66056077
0.56970095
0.47373477
0.37380361
0.27110675
0.16705153
0.062842442
-0.040195288
-0.14122415
-0.23926685
-0.33405085
-0.42497704
-0.51228784
-0.59558587
-0.67544413
-0.75144228
-0.82432992
-0.89351096
-0.9598633
-1.0225492
-1.0826054
-1.1389488
-1.1928017
-1.2429146
-1.2906099
-1.3347057
-1.3763409
-1.4148144
-1.4506312
-1.4840489
-1.5146262
1.1709053
1.1380644
1.1020074
1.0607053
1.0128849
0.95842121
0.89722986
0.82910216
0.75405349
0.6723719
0.58464112
0.49163749
0.39443144
0.29415826
0.19217692
0.089663232
-0.012069685
-0.1121649
-0.20962593
-0.30411573
-0.39500796
-0.48244817
-0.56603277
-0.64621639
-0.72261525
-0.79584116
-0.86538902
-0.93197133
-0.99490604
-1.0550153
-1.1114589
-1.1651575
-1.2152275
-1.2625618
-1.3064882
-1.3475853
-1.3857583
-1.4209022
-1.4538556
-1.4836621
1.1587642
1.1273098
1.0931223
1.0542333
1.0090057
0.95728938
0.89900171
0.83388896
0.76191228
0.68329661
0.59855634
0.50839415
0.41381135
0.31588115
0.21591306
0.11505481
0.014602886
-0.084566054
-0.18144375
-0.27562732
-0.36647187
-0.4540232
-0.53787928
-0.61837308
-0.6951621
-0.76871871
-0.83862934
-0.90544229
-0.96862767
-1.0287983
-1.0853469
-1.1389075
-1.1889355
-1.2359357
-1.2796794
-1.3202751
-1.3581168
-1.3926256
-1.4250777
-1.4541355
1.1472523
1.1169684
1.0845356
1.0479199
1.0051197
0.95598688
0.90044003
0.83818036
0.76911919
0.69342219
0.61153765
0.52409773
0.43203646
0.33636694
0.23834831
0.13910103
0.039900912
-0.058355419
-0.15465431
-0.24852649
-0.33931526
-0.42696591
-0.51108266
-0.59187684
-0.66904828
-0.74293191
-0.81320271
-0.88024944
-0.94368754
-1.0039291
-1.0605861
-1.1140258
-1.1640103
-1.2107017
-1.2542501
-1.2943753
-1.331862
-1.3657636
-1.3976904
-1.4260141
1.1363706
1.1070464
1.0762714
1.0417962
1.0012673
0.95456462
0.90160453
0.84204389
0.7757485
0.70282824
0.62366844
0.53883375
0.44919271
0.35570039
0.25956485
0.16188015
0.063897955
-0.033465107
-0.12919519
-0.2227571
-0.31348712
-0.40123113
-0.48560175
-0.56669129
-0.64424012
-0.7184504
-0.78908034
-0.85636588
-0.92005904
-0.98038209
-1.03715
-1.0904854
-1.140424
-1.1868296
-1.2301713
-1.2698511
-1.3069647
-1.3402794
-1.3716649
-1.3992641
1.1261174
1.0975478
1.0683506
1.0358888
0.99748431
0.9530679
0.90254874
0.84554047
0.7818676
0.71158738
0.63502507
0.55268084
0.46535947
0.37396009
0.27963914
0.18346525
0.086662997
-0.0098312307
-0.10500743
-0.19826587
-0.2889388
-0.37677549
-0.46139696
-0.54278096
-0.62070488
-0.69524418
-0.76623377
-0.83376467
-0.89771556
-0.95813113
-1.0150117
-1.068259
-1.1181485
-1.1642885
-1.2074136
-1.2466678
-1.2833946
-1.3161367
-1.3469698
-1.3738506
1.1164883
1.088474
1.060791
1.0302199
0.99380183
0.95153694
0.90332053
0.84872507
0.78753767
0.71976586
0.64567754
0.56571139
0.48061006
0.3912189
0.29864238
0.20392456
0.10826072
0.012606344
-0.082035276
-0.17500216
-0.26562396
-0.35355735
-0.4384302
-0.52011141
-0.59841064
-0.67328367
-0.74463489
-0.81241889
-0.87663045
-0.93714989
-0.99414438
-1.0473187
-1.0971559
-1.1430475
-1.1859473
-1.2247912
-1.2611204
-1.2932997
-1.323572
-1.3497383
1.1074767
1.0798246
1.053608
1.0248078
0.99024709
0.95000736
0.90396271
0.85164725
0.79281423
0.7274241
0.65569002
0.57799203
0.49501226
0.4075444
0.31664084
0.22332189
0.12875181
0.033904249
-0.060226074
-0.15291789
-0.24349845
-0.33153673
-0.41666481
-0.49864914
-0.57732633
-0.65253981
-0.72425587
-0.79230175
-0.85677708
-0.91741181
-0.97452099
-1.0276363
-1.0774176
-1.1230752
-1.1657422
-1.204187
-1.2401098
-1.2717326
-1.3014367
-1.326891
1.0990736
1.0715976
1.0468141
1.0196672
0.98684369
0.94851057
0.90451344
0.85435165
0.79774763
0.73461723
0.66512131
0.58958409
0.5086287
0.42299931
0.33369626
0.24171682
0.14819317
0.054115827
-0.039530048
-0.13196735
-0.22252019
-0.31067524
-0.39606551
-0.47836164
-0.55742161
-0.63298401
-0.70506925
-0.77338659
-0.83812888
-0.89889017
-0.95611442
-1.0091832
-1.0589051
-1.1043404
-1.1467677
-1.1848214
-1.2203298
-1.2513998
-1.2805285
-1.3052723
1.0912679
1.0637893
1.0404197
1.0148098
0.98361202
0.94707415
0.90500668
0.8568784
0.80238348
0.74139551
0.6740253
0.60054405
0.52151732
0.43764182
0.34986615
0.25916511
0.16663822
0.073291348
-0.019900158
-0.11210709
-0.20264911
-0.29093603
-0.37659832
-0.45921737
-0.53866691
-0.61458824
-0.68704787
-0.75564691
-0.82065937
-0.88155812
-0.93889748
-0.99193072
-1.0415894
-1.0868114
-1.1289926
-1.1666603
-1.2017467
-1.2322652
-1.2608112
-1.2848449
1.0840465
1.0563949
1.0344329
1.0102442
0.9805695
0.94572213
0.90547253
0.85926354
0.80676307
0.74780474
0.68245138
0.61092389
0.53373166
0.45152597
0.36520411
0.2757189
0.18413708
0.091478193
-0.0012919305
-0.093295822
-0.18384695
-0.27228377
-0.35823047
-0.44118576
-0.52103334
-0.59732496
-0.67016489
-0.73905634
-0.80434214
-0.86538869
-0.92284288
-0.97584983
-1.0254415
-1.0704569
-1.1123852
-1.1496696
-1.1843263
-1.2142924
-1.242248
-1.2655695
1.0773944
1.0494085
1.0288593
1.0059762
0.97773084
0.94447527
0.90593754
0.8615393
0.81092369
0.75388658
0.69044477
0.62077146
0.54532124
0.46470191
0.37976006
0.29142696
0.20073679
0.10872103
0.016336688
-0.075494304
-0.16607726
-0.25468454
-0.34093039
-0.42423714
-0.50449271
-0.58116713
-0.65439384
-0.72358869
-0.78915085
-0.85035485
-0.90792323
-0.96091144
-1.010432
-1.055245
-1.0969137
-1.1338153
-1.168034
-1.1974452
-1.2248017
-1.2474049
1.0712949
1.0428232
1.0237024
1.0020095
0.97510827
0.94335132
0.90642503
0.86373445
0.81489897
0.75967892
0.69804683
0.63013077
0.55633185
0.47721619
0.39358057
0.30633493
0.21648153
0.12506199
0.033025488
-0.058665207
-0.14930522
-0.23810578
-0.32466759
-0.4083427
-0.48901753
-0.56608817
-0.63970856
-0.7092179
-0.77505926
-0.83642949
-0.89411103
-0.94708633
-0.99653112
-1.0411441
-1.0825456
-1.1190631
-1.1528347
-1.1816871
-1.2084343
-1.2303088
1.0657299
1.0366313
1.0189636
0.99834553
0.97271165
0.94236522
0.90695532
0.86587452
0.81871913
0.76521609
0.70529539
0.63904228
0.56680578
0.48911204
0.40670902
0.32048554
0.23141277
0.1405408
0.048812131
-0.042773037
-0.13349759
-0.22251624
-0.30941267
-0.39347449
-0.4745809
-0.55206195
-0.62608321
-0.69591806
-0.7620412
-0.82358551
-0.88137866
-0.93434516
-0.98370914
-1.0281221
-1.0692485
-1.1053788
-1.138693
-1.1669816
-1.1931073
-1.2142401
1.06068
1.0308242
1.0146417
0.99498379
0.97054868
0.94152931
0.90754594
0.86798205
0.82241125
0.77052922
0.71222495
0.64754315
0.57678211
0.50042957
0.41918585
0.33391878
0.24556951
0.15519496
0.063732287
-0.027784023
-0.11862257
-0.20788589
-0.29513721
-0.37960532
-0.46115659
-0.53906273
-0.61349227
-0.68366341
-0.75007056
-0.81179578
-0.8696984
-0.92265854
-0.97193597
-1.0161471
-1.0569894
-1.0927279
-1.1255732
-1.1532916
-1.1787818
-1.1991636
1.0561246
1.0253927
1.0107336
0.99192225
0.96862495
0.94085354
0.90821188
0.87007681
0.82599948
0.77564637
0.71886696
0.65566747
0.58629691
0.511206
0.43104874
0.34667208
0.25898836
0.16905986
0.077819752
-0.013666009
-0.1046498
-0.19418585
-0.28181375
-0.36670874
-0.44871894
-0.52706518
-0.60191052
-0.6724283
-0.73912126
-0.80103319
-0.85904236
-0.911997
-0.96118139
-1.005187
-1.0457357
-1.0810756
-1.1134396
-1.1405802
-1.1654204
-1.1850525
1.0520423
1.0203272
1.0072337
0.98915748
0.96694411
0.94034562
0.90896573
0.87217599
0.82950525
0.7805928
0.72524999
0.66344647
0.59538342
0.52147583
0.44233283
0.3587805
0.27170376
0.18216892
0.091106569
-0.0003883695
-0.091550181
-0.18138833
-0.26941573
-0.35475898
-0.43724282
-0.51604431
-0.59131299
-0.66218725
-0.72916729
-0.79127063
-0.84938255
-0.90233105
-0.95141494
-0.99520927
-1.0354543
-1.0703869
-1.1022568
-1.1288112
-1.1529886
-1.1718764
1.048411
1.0156174
1.0041342
0.98668487
0.96550788
0.94001125
0.90981791
0.87429438
0.83294748
0.78539113
0.73139993
0.67090871
0.60407228
0.53127107
0.45307081
0.37027685
0.28374808
0.1945537
0.10362313
0.012078091
-0.079295861
-0.16946655
-0.25791744
-0.34373093
-0.42670365
-0.50597546
-0.58167499
-0.65291486
-0.72018266
-0.78248099
-0.84069083
-0.8936312
-0.942606
-0.98618178
-1.0261123
-1.0606269
-1.0919897
-1.1179481
-1.1414516
-1.1595951
1.045208
1.0112528
1.001425
0.98449899
0.96431619
0.9398542
0.91077673
0.87644452
0.83634268
0.79006152
0.7373402
0.67808024
0.61239166
0.54062131
0.46329316
0.38119184
0.29515175
0.20624401
0.11539829
0.023761214
-0.06786014
-0.1583947
-0.24729395
-0.33360006
-0.41707734
-0.4968343
-0.57297204
-0.64458585
-0.71214143
-0.77463718
-0.83293898
-0.88586796
-0.93472375
-0.97807223
-1.0176764
-1.0517603
-1.0826035
-1.1079542
-1.1307723
-1.1481626
1.0424103
1.0072224
0.99909372
0.98259376
0.96336722
0.93987654
0.91184863
0.87863683
0.83970517
0.79462183
0.74309184
0.68498478
0.62036741
0.54955394
0.47302819
0.3915542
0.3059434
0.21726803
0.12645943
0.034687572
-0.057217407
-0.14814787
-0.23752108
-0.32434243
-0.40834021
-0.48859678
-0.56517991
-0.63717502
-0.70501773
-0.76771211
-0.82609871
-0.87901189
-0.92773721
-0.9708485
-1.0101134
-1.0437523
-1.0740634
-1.0987921
-1.1209117
-1.1375347
1.0399944
1.0035154
0.99712542
0.98096268
0.96265748
0.94007872
0.91303821
0.88087982
0.8430472
0.79908778
0.74867369
0.69164383
0.62802322
0.55809424
0.48230225
0.4013908
0.31614992
0.22765238
0.13683255
0.044882527
-0.047343093
-0.13870202
-0.22857539
-0.31593465
-0.40046908
-0.48123917
-0.55827459
-0.63065733
-0.69878578
-0.76167872
-0.82014175
-0.87303363
-0.92161535
-0.96447875
-1.0033901
-1.0365682
-1.0663346
-1.0904238
-1.1118317
-1.1276711
1.0379372
1.0001207
0.99550277
0.97959894
0.96218188
0.94045974
0.91434841
0.88318013
0.84637906
0.80347304
0.75410255
0.69807682
0.63538074
0.56626554
0.49113979
0.41072675
0.32579658
0.2374222
0.14654234
0.054370284
-0.038213615
-0.13003395
-0.2204341
-0.30835391
-0.39344117
-0.47473805
-0.55223234
-0.62500788
-0.69342
-0.75651004
-0.81504
-0.86790397
-0.91632721
-0.95893154
-0.99747307
-1.030174
-1.0593825
-1.0828118
-1.1034959
-1.1185342
1.0362199
0.99702862
0.99420589
0.97849548
0.96193383
0.94101721
0.91578059
0.88554268
0.84970923
0.80778941
0.75939325
0.70430126
0.64245969
0.57408929
0.49956349
0.41958549
0.33490712
0.24660124
0.15561224
0.063173935
-0.029806362
-0.12212128
-0.21307513
-0.30157794
-0.38723418
-0.46907042
-0.54702975
-0.62020203
-0.68889506
-0.75217931
-0.81076564
-0.86359397
-0.91184223
-0.95417603
-0.99232931
-1.0245366
-1.053173
-1.0759197
-1.0958703
-1.1100875
1.0348323
0.99423255
0.99321297
0.97764511
0.96190528
0.94174749
0.91733463
0.88797084
0.85304452
0.81204694
0.76455886
0.71033288
0.64927804
0.58158525
0.50759439
0.4279889
0.34350383
0.25521189
0.16406447
0.071315483
-0.022099677
-0.11494248
-0.20647714
-0.29558514
-0.38182637
-0.46421371
-0.54264384
-0.61621556
-0.68518609
-0.74866017
-0.80729148
-0.8600752
-0.90813057
-0.95018226
-0.98792647
-1.0196248
-1.0476727
-1.0697132
-1.0889231
-1.1022952
1.033749
0.99172938
0.99250177
0.97704091
0.96208693
0.9426457
0.91900902
0.89046647
0.85639016
0.81625407
0.76961082
0.71618574
0.65585213
0.58877158
0.515252
0.43595743
0.35160762
0.26327529
0.17192007
0.078815864
-0.01507286
-0.10847689
-0.20061956
-0.2903546
-0.37719662
-0.46014603
-0.53905222
-0.61302484
-0.6822689
-0.74592694
-0.80459123
-0.85732006
-0.90516367
-0.94692151
-0.98423366
-1.0154092
-1.0428495
-1.0641615
-1.0826251
-1.0951241
1.0327447
0.98950065
0.99204593
0.9766758
0.96246832
0.94370586
0.92080101
0.89303012
0.85975002
0.82041784
0.77455911
0.72187249
0.66219688
0.59566505
0.52255447
0.4435102
0.35923817
0.27081139
0.179199
0.085694967
-0.0087061935
-0.10270479
-0.19548267
-0.28586626
-0.37332462
-0.45684629
-0.53623337
-0.61060719
-0.68012032
-0.74395504
-0.80263999
-0.85530232
-0.90291491
-0.94436687
-0.98122233
-1.0118639
-1.0386737
-1.0592383
-1.0769499
-1.0885448
1.0321635
0.98754288
0.99181316
0.97654214
0.96303806
0.94492095
0.92270669
0.89566115
0.86312676
0.82454406
0.77941252
0.72740457
0.668326
0.60228125
0.5295188
0.45066521
0.36641405
0.27783906
0.18592017
0.091971667
-0.0029809266
-0.097607396
-0.1910477
-0.28210104
-0.37019105
-0.45429448
-0.53416687
-0.6089412