/*--------------------------------*- C++ -*----------------------------------*\
| =========                 |                                                 |
| \\      /  F ield         | OpenFOAM: The Open Source CFD Toolbox           |
|  \\    /   O peration     | Version:  2.1.x                                 |
|   \\  /    A nd           | Web:      www.OpenFOAM.org                      |
|    \\/     M anipulation  |                                                 |
\*---------------------------------------------------------------------------*/
FoamFile
{
    version     2.0;
    format      ascii;
    class       surfaceScalarField;
    location    "2";
    object      phi;
}
// * * * * * * * * * * * * * * * * * * * * * * * * * * * * * * * * * * * * * //

dimensions      [0 3 -1 0 0 0 0];

internalField   nonuniform List<scalar> 
101640
(
0.00051212069
2.3757308e-05
-0.000535878
0.00048132574
3.0794944e-05
0.00044499528
3.6330468e-05
0.00040447068
4.0524595e-05
0.00036126539
4.3205292e-05
0.00031699364
4.4271748e-05
0.00027316311
4.3830532e-05
0.00023104043
4.2122679e-05
0.00019159813
3.94423e-05
0.00015550368
3.6094454e-05
0.00012315032
3.2353356e-05
9.4707733e-05
2.8442588e-05
7.0185091e-05
2.4522643e-05
4.9485163e-05
2.0699928e-05
3.2430132e-05
1.7055032e-05
1.8757172e-05
1.3672961e-05
8.122988e-06
1.0634184e-05
1.2968276e-07
7.9933056e-06
-5.6869326e-06
5.8166156e-06
-9.7198715e-06
4.0329391e-06
-1.2362123e-05
2.642252e-06
-1.3955609e-05
1.5934854e-06
-1.4784351e-05
8.2874295e-07
-1.5066753e-05
2.8240215e-07
-1.4985932e-05
-8.082101e-08
-1.4755453e-05
-2.304792e-07
-1.4458832e-05
-2.9662118e-07
-1.4159639e-05
-2.9919355e-07
-1.3868498e-05
-2.9114135e-07
-1.3545224e-05
-3.2327505e-07
-1.3110807e-05
-4.3441756e-07
-1.2471711e-05
-6.3909591e-07
-1.1545167e-05
-9.2654446e-07
-1.0282806e-05
-1.2623611e-06
-8.687513e-06
-1.5952935e-06
-6.8213989e-06
-1.8661144e-06
-4.8019827e-06
-2.0194166e-06
-2.7876401e-06
-2.014343e-06
-9.7570511e-07
-1.8119353e-06
-1.2186994e-06
2.4299471e-07
0.0009478776
4.103932e-05
-0.00096515961
0.00092314209
5.5530458e-05
0.00088993986
6.9532697e-05
0.00084849307
8.197138e-05
0.00079934138
9.2356986e-05
0.00074321398
0.00010039915
0.00068109612
0.00010594839
0.00061425661
0.00010896219
0.0005442288
0.00010947011
0.00047276924
0.00010755401
0.0004017764
0.00010334619
0.0003331808
9.7038195e-05
0.00026879647
8.8906965e-05
0.0002101097
7.9386705e-05
0.00015818012
6.8984603e-05
0.00011358461
5.826848e-05
7.6425135e-05
4.7793655e-05
4.6389274e-05
3.8029167e-05
2.286674e-05
2.9339149e-05
4.9985008e-06
2.1901178e-05
-8.1363647e-06
1.5777117e-05
-1.745338e-05
1.0910501e-05
-2.3794216e-05
7.169579e-06
-2.7900049e-05
4.3882346e-06
-3.0402502e-05
2.4216318e-06
-3.1768033e-05
1.1350517e-06
-3.2428555e-05
3.6390022e-07
-3.2679461e-05
-4.8287779e-08
-3.2638056e-05
-3.3254608e-07
-3.2346433e-05
-6.148977e-07
-3.1731309e-05
-1.0495415e-06
-3.0673322e-05
-1.6970824e-06
-2.9052455e-05
-2.5474116e-06
-2.6787133e-05
-3.5276828e-06
-2.3862046e-05
-4.5203804e-06
-2.0342237e-05
-5.3859227e-06
-1.6371704e-05
-5.9899508e-06
-1.2159828e-05
-6.2262191e-06
-7.9579866e-06
-6.0137768e-06
-4.8554228e-06
-4.3212625e-06
0.0010664257
4.276799e-05
-0.0010681544
0.0010576384
6.4317775e-05
0.001041845
8.5326118e-05
0.0010186751
0.00010514121
0.00098785994
0.00012317218
0.00094923966
0.00013901944
0.00090277486
0.0001524132
0.00084860386
0.00016313318
0.0007871008
0.00017097317
0.00071893035
0.00017572447
0.00064510868
0.00017716787
0.00056707244
0.00017507443
0.00048671996
0.00016925945
0.00040642098
0.00015968569
0.00032884095
0.00014656463
0.00025660521
0.00013050422
0.00019188773
0.00011251114
0.00013609183
9.3825063e-05
8.9737973e-05
7.5693009e-05
5.254224e-05
5.9096911e-05
2.3653446e-05
4.4665911e-05
1.9012231e-06
3.2662724e-05
-1.3983768e-05
2.305457e-05
-2.5235381e-05
1.5639847e-05
-3.2952857e-05
1.0139108e-05
-3.8069755e-05
6.2519498e-06
-4.1363672e-05
3.657816e-06
-4.3411548e-05
1.9995889e-06
-4.4622944e-05
8.7884912e-07
-4.5187649e-05
-5.0192877e-08
-4.5136731e-05
-1.1004592e-06
-4.4422419e-05
-2.4113943e-06
-4.2951824e-05
-4.018007e-06
-4.0646066e-05
-5.8334404e-06
-3.7474708e-05
-7.6917385e-06
-3.3474671e-05
-9.3859601e-06
-2.8754836e-05
-1.0709785e-05
-2.3494101e-05
-1.1486954e-05
-1.7922357e-05
-1.158552e-05
-1.0297077e-05
-1.2480702e-05
0.0010646864
3.6141442e-05
-0.0010580599
0.0010659754
6.3028791e-05
0.0010621264
8.9175088e-05
0.0010528873
0.00011438031
0.0010378876
0.00013817195
0.001016714
0.00016019299
0.00098893933
0.00018018789
0.00095414922
0.00019792329
0.00091197676
0.00021314562
0.00086214133
0.0002255599
0.00080450724
0.00023480195
0.00073917801
0.00024040367
0.00066664701
0.00024179045
0.00058800034
0.00023833236
0.00050508964
0.00022947533
0.00042061418
0.00021497968
0.00033793338
0.00019519193
0.00026053546
0.00017122299
0.0001913489
0.00014487957
0.00013219646
0.00011824934
8.365037e-05
9.3212005e-05
4.5238475e-05
7.1074619e-05
1.5813963e-05
5.2479082e-05
-6.0755451e-06
3.7529355e-05
-2.1926092e-05
2.5989655e-05
-3.3128892e-05
1.745475e-05
-4.0887443e-05
1.1416366e-05
-4.6177265e-05
7.2894107e-06
-4.9729197e-05
4.4307808e-06
-5.2000145e-05
2.2207551e-06
-5.3250818e-05
1.5021379e-07
-5.3553969e-05
-2.1082428e-06
-5.2907267e-05
-4.6647089e-06
-5.1274221e-05
-7.4664857e-06
-4.8631577e-05
-1.0334382e-05
-4.4995105e-05
-1.3022432e-05
-4.0431594e-05
-1.5273296e-05
-3.5066077e-05
-1.6852472e-05
-2.9077052e-05
-1.7574545e-05
-1.6647314e-05
-2.2726816e-05
0.0010366002
2.8154792e-05
-0.0010286135
0.0010409501
5.8678819e-05
0.001041702
8.8423176e-05
0.0010388249
0.00011725744
0.0010321082
0.00014488866
0.0010212242
0.00017107705
0.0010057714
0.00019564068
0.0009852761
0.00021841855
0.00095919428
0.00023922744
0.00092691089
0.00025784329
0.00088775509
0.00027395775
0.00084104049
0.00028711827
0.00078615934
0.0002966716
0.00072275116
0.00030174054
0.00065095883
0.00030126766
0.00057176871
0.0002941698
0.00048731249
0.00027964816
0.00040092674
0.00025760874
0.00031675462
0.00022905169
0.00023888468
0.00019611928
0.00017043377
0.00016166291
0.00011302155
0.00012848684
6.6803724e-05
9.8696912e-05
3.0879636e-05
7.3453443e-05
3.7787657e-06
5.3090526e-05
-1.6150715e-05
3.738423e-05
-3.0509462e-05
2.5775112e-05
-4.0704319e-05
1.7484268e-05
-4.7873736e-05
1.1600198e-05
-5.2849486e-05
7.1965047e-06
-5.6172643e-05
3.4733714e-06
-5.8152146e-05
-1.2874028e-07
-5.8922156e-05
-3.8946988e-06
-5.8535207e-05
-7.8534342e-06
-5.7006503e-05
-1.1863087e-05
-5.4352836e-05
-1.5676099e-05
-5.0613968e-05
-1.9012163e-05
-4.5867394e-05
-2.1599045e-05
-4.0236111e-05
-2.3205829e-05
-2.3059143e-05
-3.3824281e-05
0.0010087227
2.1261465e-05
-0.0010018294
0.0010130146
5.4386897e-05
0.0010146791
8.6758687e-05
0.0010137759
0.00011816061
0.0010102715
0.00014839307
0.0010040273
0.00017732122
0.00099482539
0.00020484263
0.00098237077
0.00023087317
0.00096626472
0.00025533349
0.00094597559
0.00027813242
0.00092081626
0.00029911707
0.00088993117
0.00031800336
0.00085231012
0.00033429264
0.00080685652
0.00034719415
0.0007525457
0.00035557848
0.00068871276
0.00035800274
0.00061547801
0.0003528829
0.00053422889
0.00033885785
0.00044792317
0.00031535742
0.00036087387
0.00028316858
0.00027789057
0.00024464621
0.00020311033
0.00020326708
0.00013913046
0.00016267679
8.680783e-05
0.00012577607
4.5611262e-05
9.4287093e-05
1.4174446e-05
6.8821046e-05
-9.2195029e-06
4.9169061e-05
-2.6311381e-05
3.4576146e-05
-3.866359e-05
2.3952407e-05
-4.7538055e-05
1.6070969e-05
-5.3857734e-05
9.7930511e-06
-5.8228596e-05
4.2421219e-06
-6.1010463e-05
-1.1128323e-06
-6.2392102e-05
-6.4717951e-06
-6.2468128e-05
-1.178706e-05
-6.1286933e-05
-1.6857294e-05
-5.8885095e-05
-2.1414001e-05
-5.531097e-05
-2.5173169e-05
-5.064123e-05
-2.7875569e-05
-2.8832459e-05
-4.4867912e-05
0.00098402895
1.5613795e-05
-0.00097838128
0.00098764579
5.0770055e-05
0.00098920112
8.5203356e-05
0.0009887512
0.00011861053
0.00098633918
0.00015080509
0.00098195951
0.00018170089
0.00097556303
0.00021123911
0.00096705267
0.00023938354
0.00095625324
0.00026613292
0.00094287375
0.00029151191
0.00092646166
0.00031552916
0.00090635526
0.00033810976
0.00088164275
0.00035900516
0.0008511451
0.0003776918
0.00081345302
0.00039327055
0.00076706347
0.00040439229
0.00071067203
0.00040927434
0.0006436562
0.00040587368
0.00056669467
0.00039231894
0.00048226608
0.00036759717
0.00039461672
0.00033229557
0.00030894887
0.00028893494
0.00023011434
0.00024151131
0.00016149948
0.00019439093
0.00010460607
0.0001511805
5.930379e-05
0.00011412333
2.4391444e-05
8.4081407e-05
-1.8550241e-06
6.0822614e-05
-2.1267063e-05
4.3364447e-05
-3.551935e-05
3.0323256e-05
-4.5964354e-05
2.0238055e-05
-5.3588108e-05
1.1865875e-05
-5.9044693e-05
4.3437532e-06
-6.2731255e-05
-2.7852336e-06
-6.4872332e-05
-9.6459832e-06
-6.558758e-05
-1.6142046e-05
-6.494143e-05
-2.2060152e-05
-6.2978023e-05
-2.7136575e-05
-5.9744607e-05
-3.1108985e-05
-3.3409818e-05
-5.5167248e-05
0.00096195404
1.1060932e-05
-0.00095740118
0.000964879
4.7845096e-05
0.00096614283
8.3939531e-05
0.00096576701
0.00011898635
0.00096379108
0.00015278102
0.00096025231
0.00018523966
0.00095518256
0.00021630886
0.00094860266
0.00024596344
0.00094050148
0.0002742341
0.00093080149
0.0003012119
0.00091931211
0.00032701855
0.00090567203
0.00035174984
0.00088928149
0.00037539569
0.00086923617
0.00039773712
0.00084427951
0.00041822721
0.0008128061
0.0004358657
0.00077297294
0.00044910751
0.00072298582
0.00045586079
0.00066162623
0.00045367854
0.00058897679
0.00044024661
0.00050707634
0.00041419602
0.00042002493
0.00037598634
0.00033321946
0.00032831678
0.00025197672
0.00027563367
0.00018026179
0.00022289543
0.00012010227
0.00017428285
7.1730101e-05
0.00013245357
3.4115306e-05
9.8437408e-05
5.5544732e-06
7.1925279e-05
-1.5838921e-05
5.1716651e-05
-3.1803742e-05
3.6202877e-05
-4.3742709e-05
2.3804842e-05
-5.2674533e-05
1.3275576e-05
-5.9276731e-05
3.8169639e-06
-6.3967496e-05
-4.9552178e-06
-6.6988263e-05
-1.312128e-05
-6.8470792e-05
-2.0577622e-05
-6.8486365e-05
-2.7121002e-05
-6.7076736e-05
-3.2518614e-05
-3.6343375e-05
-6.4143178e-05
0.00094197927
7.4850257e-06
-0.00093840337
0.00094425447
4.5569898e-05
0.00094519617
8.299783e-05
0.00094479391
0.00011938861
0.0009430585
0.00015451643
0.00094002105
0.00018827711
0.00093573018
0.00022059973
0.00093024756
0.00025144606
0.00092363717
0.00028084449
0.00091594441
0.00030890466
0.00090716092
0.00033580203
0.00089717466
0.0003617361
0.0008857023
0.00038686805
0.00087220825
0.00041123117
0.00085581699
0.00043461847
0.00083523767
0.00045644503
0.00080873773
0.00047560745
0.00077422663
0.00049037189
0.00072953758
0.00049836759
0.00067299026
0.00049679393
0.00060420745
0.00048297882
0.00052488555
0.00045530824
0.00043898466
0.00041421767
0.00035198973
0.00036262861
0.00026949837
0.00030538678
0.00019586517
0.00024791606
0.0001335025
0.00019481624
8.2924867e-05
0.00014901504
4.324467e-05
0.00011160548
1.2793032e-05
8.2168288e-05
-1.0333566e-05
5.9329475e-05
-2.7891392e-05
4.1362669e-05
-4.1290722e-05
2.6674907e-05
-5.1551633e-05
1.4077875e-05
-5.9354102e-05
2.8472504e-06
-6.5121528e-05
-7.3538543e-06
-6.9101912e-05
-1.6597237e-05
-7.1432683e-05
-2.4790231e-05
-7.2181791e-05
-3.1769506e-05
-3.7259663e-05
-7.1265503e-05
0.00092369764
4.7805666e-06
-0.00092099318
0.00092537469
4.3892848e-05
0.00092599359
8.2378938e-05
0.00092552234
0.00011985985
0.00092394512
0.00015609365
0.00092127406
0.00019094817
0.00091754855
0.00022432525
0.00091283082
0.00025616379
0.00090720208
0.00028647323
0.00090075367
0.00031535307
0.00089356759
0.0003429881
0.00088568207
0.00036962163
0.00087703942
0.0003955107
0.00086741354
0.00042085704
0.00085631928
0.00044571273
0.00084290803
0.00046985628
0.00082586999
0.00049264548
0.00080337988
0.000512862
0.00077315864
0.00052858883
0.00073275268
0.00053719989
0.00068013641
0.00053559509
0.00061460779
0.00052083687
0.00053763575
0.0004911897
0.00045308456
0.0004471798
0.00036647251
0.00039199883
0.00028354532
0.00033084325
0.0002088868
0.00026947475
0.0001451536
0.00021274824
9.3048713e-05
0.00016371037
5.1789683e-05
0.00012342732
1.9752654e-05
9.1366504e-05
-4.9408417e-06
6.6056165e-05
-2.4018551e-05
4.5752616e-05
-3.8861386e-05
2.892071e-05
-5.046605e-05
1.4451914e-05
-5.9500473e-05
1.6805686e-06
-6.63851e-05
-9.7126101e-06
-7.1370422e-05
-1.9804909e-05
-7.4590646e-05
-2.8549282e-05
-3.5828871e-05
-7.6021437e-05
0.00090678584
2.8510698e-06
-0.00090485635
0.00090791888
4.2759813e-05
0.00090822738
8.2070434e-05
0.00090766428
0.00012042295
0.00090619446
0.00015756348
0.00090381246
0.00019333017
0.00090054282
0.00022759489
0.00089643525
0.00026027136
0.00089156301
0.00029134546
0.00088602198
0.00032089411
0.00087992261
0.00034908747
0.00087337063
0.00037617361
0.00086643293
0.0004024484
0.00085908524
0.00042820473
0.00085113752
0.00045366045
0.00084213677
0.00047885703
0.00083124983
0.00050353243
0.00081714655
0.00052696529
0.00079792339
0.00054781199
0.00077114786
0.00056397542
0.00073414421
0.00057259874
0.00068464188
0.0005703392
0.00062173941
0.00055409218
0.00054679065
0.00052212856
0.0004636163
0.00047517319
0.00037773737
0.00041672218
0.00029494754
0.00035226458
0.00021992572
0.00028777006
0.00015544551
0.00022819057
0.00010231233
0.0001765605
5.981871e-05
0.00013386012
2.6403355e-05
9.9471521e-05
2.5290264e-07
7.1903068e-05
-2.0292971e-05
4.9466584e-05
-3.6559213e-05
3.0718156e-05
-4.9505376e-05
1.4626731e-05
-5.9779871e-05
5.6188501e-07
-6.7797802e-05
-1.1786977e-05
-7.3804827e-05
-2.2542258e-05
-3.1732673e-05
-7.7901025e-05
0.00089098428
1.6094439e-06
-0.00088974265
0.00089162769
4.2116398e-05
0.00089164541
8.2052719e-05
0.0008909798
0.00012108856
0.00088958245
0.00015896082
0.00088743467
0.00019547795
0.00088454727
0.00023048229
0.00088095532
0.00026386332
0.00087671772
0.00029558307
0.00087191903
0.0003256928
0.00086666813
0.00035433837
0.00086108876
0.00038175298
0.00085530022
0.00040823694
0.00084938427
0.00043412069
0.00084333344
0.00045971127
0.00083697558
0.0004852149
0.00082987155
0.00051063645
0.00082118857
0.00053564827
0.00080956751
0.00055943305
0.0007930292
0.00058051373
0.00076900906
0.00059661888
0.00073466056
0.00060468769
0.0006875571
0.00060119564
0.00062671082
0.00058297484
0.00055345878
0.00054842523
0.00047162235
0.00049855861
0.00038670095
0.00043718599
0.00030445456
0.00037001645
0.00022954574
0.0003030994
0.00016476065
0.00024134559
0.00011094183
0.00018767894
6.7442557e-05
0.0001429708
3.2786446e-05
0.00010655918
5.2585524e-06
7.6994478e-05
-1.6709035e-05
5.2685744e-05
-3.4370055e-05
3.2287751e-05
-4.8639514e-05
1.4831345e-05
-6.0145841e-05
-2.8064903e-07
-6.9289332e-05
-1.3398767e-05
-2.4649643e-05
-7.6372362e-05
0.00087608197
9.7706715e-07
-0.00087544959
0.00087628921
4.190916e-05
0.00087604027
8.2301657e-05
0.00087527039
0.00012185844
0.00087392253
0.00016030868
0.00087196836
0.00019743212
0.00086940745
0.00023304319
0.00086626176
0.00026700901
0.0008625758
0.00029926902
0.00085841962
0.00032984898
0.00085388967
0.00035886832
0.00084910529
0.00038653736
0.00084419826
0.00041314397
0.00083929342
0.00043902552
0.00083447692
0.00046452777
0.00082974485
0.00048994697
0.00082492786
0.00051545344
0.00081958474
0.00054099139
0.00081286781
0.00056614998
0.0008033776
0.00059000394
0.00078905628
0.0006109402
0.00076722176
0.00062652222
0.00073490195
0.00063351545
0.00068959588
0.00062828091
0.00063032787
0.00060769323
0.00055849578
0.0005703907
0.00047794953
0.00051773224
0.00039413943
0.00045382655
0.0003127215
0.00038451733
0.00023825291
0.00031581418
0.00017345596
0.00025247588
0.00011917098
0.00019725578
7.4811894e-05
0.00015091827
3.9008063e-05
0.00011279831
1.0166541e-05
8.1527266e-05
-1.3175603e-05
5.5629895e-05
-3.2193512e-05
3.3849254e-05
-4.7760621e-05
1.528646e-05
-6.0453624e-05
-7.0576295e-07
-1.4224176e-05
-7.0879091e-05
0.00086190688
8.8248983e-07
-0.0008618123
0.0008617299
4.208614e-05
0.00086124087
8.2790688e-05
0.00086037132
0.00012272799
0.00085905893
0.00016162108
0.00085726867
0.00019922238
0.00085499109
0.00023532077
0.00085223725
0.00026976286
0.00084903904
0.00030246722
0.00084545252
0.00033343551
0.00084156019
0.00036276065
0.00083746926
0.0003906283
0.00083330614
0.00041730709
0.00082920548
0.00044312618
0.00082529132
0.00046844192
0.00082164564
0.00049359266
0.00081825802
0.00051884105
0.00081494974
0.00054429967
0.00081126419
0.00056983552
0.000806325
0.00059494313
0.00079868055
0.00061858464
0.00078618988
0.00063901289
0.00076606626
0.00065363907
0.00073525636
0.00065909081
0.00069126077
0.00065168882
0.00063319785
0.00062845362
0.00056258005
0.00058835004
0.00048329417
0.00053311244
0.00040070785
0.00046710364
0.00032031249
0.00039620954
0.00024649429
0.00032629408
0.00018186421
0.00026188586
0.00012724401
0.00020553846
8.2115759e-05
0.00015792656
4.5232111e-05
0.00011841091
1.5130493e-05
8.5731513e-05
-9.5365717e-06
5.851632e-05
-2.9885207e-05
3.5635097e-05
-4.661687e-05
1.60259e-05
-1.7422241e-08
-6.0823623e-05
0.00084832091
1.255166e-06
-0.00084869358
0.00084780675
4.2600298e-05
0.00084710539
8.3492045e-05
0.00084614547
0.00012368791
0.00084486133
0.00016290522
0.00084321378
0.00020086993
0.00084118646
0.00023734809
0.00083878119
0.00027216813
0.00083601902
0.00030522939
0.0008329442
0.00033651033
0.00082962606
0.00036607879
0.00082615848
0.00039409587
0.00082265672
0.00042080886
0.00081925043
0.00044653247
0.00081607276
0.00047161959
0.00081324098
0.00049642444
0.00081082637
0.00052125567
0.00080880414
0.0005463219
0.00080697689
0.00057166278
0.00080486161
0.00059705841
0.00080154148
0.00062190478
0.00079550214
0.00064505223
0.00078451567
0.00066462554
0.0007657062
0.00067790028
0.00073598541
0.00068140961
0.00069292462
0.00067151441
0.00063579933
0.00064547533
0.00056626583
0.00060264593
0.00048823754
0.00054513193
0.00040696114
0.00047748595
0.00032771401
0.00040554121
0.00025466866
0.00033493121
0.00019030323
0.00026990389
0.00013541877
0.00021281102
8.9578175e-05
0.00016425151
5.1660652e-05
0.00012364904
2.0354035e-05
8.9822937e-05
-5.5835002e-06
6.1572632e-05
-2.7063227e-05
3.7505627e-05
1.8453691e-05
-4.553434e-05
0.00083521089
2.0273822e-06
-0.00083598311
0.0008344026
4.3408592e-05
0.00083351658
8.4378061e-05
0.00083247831
0.00012472618
0.00083122038
0.00016416314
0.00082970099
0.00020238932
0.00082789864
0.00023915044
0.00082580743
0.00027425934
0.00082343942
0.0003075974
0.00082082861
0.00033912114
0.00081803281
0.00036887459
0.00081513366
0.00039699502
0.00081223411
0.00042370841
0.0008094542
0.00044931238
0.00080692308
0.00047415071
0.00080476775
0.00049857977
0.00080309417
0.00052292924
0.00080195737
0.0005474587
0.0008013125
0.00057230764
0.00080093632
0.0005974346
0.00080031094
0.00062253015
0.00079846913
0.00064689404
0.00079382516
0.00066926951
0.00078406323
0.00068766221
0.00076623902
0.00069923383
0.00073727781
0.00070047562
0.00069488232
0.00068787082
0.00063852729
0.00065900096
0.00057001938
0.00061363985
0.00049327324
0.00055423209
0.00041337542
0.00048543903
0.00033535199
0.00041295464
0.00026314165
0.00034211423
0.000199083
0.00027686968
0.00014396897
0.00021936553
9.7438079e-05
0.00017017993
5.8511028e-05
0.00012874999
2.5856362e-05
9.4227298e-05
-1.7698338e-06
6.5131823e-05
4.0921092e-05
-2.4237235e-05
0.00082248102
3.13989e-06
-0.00082359353
0.00082142026
4.4469352e-05
0.00082037696
8.5421356e-05
0.0008192741
0.00012582905
0.00081804393
0.00016539331
0.00081664338
0.00020378987
0.00081504686
0.00024074696
0.00081324233
0.00027606387
0.00081123434
0.0003096054
0.00080904796
0.00034130752
0.00080673124
0.0003711913
0.00080435471
0.00039937155
0.0008020102
0.00042605293
0.00079980681
0.00045151577
0.00079786562
0.0004760919
0.00079631135
0.00050013404
0.00079526085
0.00052397974
0.00079480474
0.00054791481
0.00079497827
0.00057213411
0.00079571203
0.00059670083
0.000796752
0.00062149018
0.00079753828
0.00064610776
0.00079704563
0.00066976216
0.00079361029
0.00069109755
0.00078483313
0.00070801099
0.00076772831
0.00071758045
0.0007392842
0.00071631492
0.00069738348
0.00070090169
0.00064172236
0.00066930097
0.0005742437
0.00062171075
0.00049882931
0.00056085341
0.00042036682
0.00049141713
0.00034361118
0.00041886987
0.00027225604
0.00034822482
0.0002085201
0.00028310148
0.00015317256
0.00022552747
0.00010597772
0.00017594483
6.6010252e-05
0.00013419477
3.2648459e-05
9.8493616e-05
6.8776499e-05
4.7930517e-06
0.00081005157
4.5410227e-06
-0.0008114527
0.00080877848
4.5742443e-05
0.00080760464
8.6595193e-05
0.00080645218
0.00012698151
0.00080525401
0.00016659148
0.00080396689
0.000205077
0.00080256222
0.00024215163
0.00080102279
0.00027760329
0.00079934679
0.0003112814
0.00079755201
0.00034310229
0.00079567787
0.00037306545
0.00079378524
0.00040126418
0.00079195577
0.00042788241
0.00079028836
0.00045318317
0.0007888951
0.00047748516
0.00078789424
0.0005011349
0.00078740233
0.00052447165
0.00078752234
0.00054779481
0.00078832697
0.00057132948
0.00078982903
0.00059519877
0.00079193199
0.00061938723
0.00079434676
0.00064369299
0.00079646684
0.00066764208
0.00079720219
0.0006903622
0.00079480861
0.00071040457
0.00078681364
0.00072557541
0.00077022413
0.00073290444
0.00074213767
0.00072898814
0.00070065325
0.00071078539
0.00064568878
0.00067667522
0.0005792975
0.00062724469
0.00050528371
0.00056543093
0.00042831282
0.00049584075
0.00035284422
0.00042369343
0.00028235801
0.00035358769
0.00021892048
0.00028896499
0.000163398
0.00023146731
0.00011551293
0.00018207983
7.4877134e-05
0.00013912942
0.00010322399
4.0429642e-05
0.00079785686
6.1840568e-06
-0.0007994999
0.00079640916
4.7190144e-05
0.00079513077
8.7873589e-05
0.00079394429
0.000128168
0.00079278452
0.00016775124
0.00079160859
0.00020625293
0.00079038559
0.00024337462
0.00078909424
0.00027889465
0.00078772761
0.00031264803
0.00078629715
0.00034453276
0.00078483472
0.00037452787
0.00078339287
0.00040270602
0.00078204405
0.00042923123
0.00078087806
0.00045434916
0.00077999821
0.00047836501
0.00077951517
0.00050161794
0.00077954103
0.0005244458
0.00078018036
0.00054715548
0.0007815205
0.00056998935
0.00078361356
0.0005931057
0.0007864493
0.0006165515
0.00078990168
0.00064024061
0.00079364453
0.00066389923
0.00079701962
0.00068698711
0.00079886928
0.0007085549
0.0007973687
0.00072707599
0.00078999227
0.00074028087
0.00077377478
0.00074520563
0.00074596793
0.00073859224
0.0007049021
0.00071774105
0.0006507089
0.00068143789
0.00058550289
0.00063063694
0.00051298676
0.00056835689
0.00043755281
0.00049912737
0.00036341336
0.00042772714
0.00029376159
0.00035861676
0.00023070833
0.00029452058
0.00017488626
0.0002379019
0.00012652509
0.00018749058
0.00014411042
8.5638661e-05
0.00078584213
8.0262088e-06
-0.00078768428
0.00078425478
4.8777496e-05
0.00078289706
8.9231309e-05
0.0007816925
0.00012937255
0.00078057893
0.00016886482
0.0007795143
0.00020731755
0.00077846609
0.00024442283
0.00077740972
0.00027995101
0.00077633401
0.00031372375
0.00077524505
0.00034562172
0.00077416832
0.0003756046
0.00077314881
0.00040372553
0.00077225104
0.000430129
0.00077155632
0.00045504388
0.00077116
0.00047876133
0.00077116534
0.0005016126
0.00077167878
0.00052393236
0.00077280195
0.00054603231
0.00077462599
0.0005681653
0.00077721965
0.00059051204
0.00078061544
0.0006131557
0.00078477753
0.00063607853
0.00078955147
0.00065912528
0.00079456986
0.00068196873
0.00079912233
0.00070400243
0.00080197845
0.00072421987
0.00080124439
0.00074101493
0.00079436092
0.0007520891
0.00077843776
0.0007545154
0.0007509036
0.00074527521
0.00071033931
0.00072200218
0.00065704029
0.00068393596
0.00059317204
0.00063222515
0.00052224414
0.00057005526
0.00044845239
0.0005015189
0.00037561202
0.00043145713
0.00030692677
0.00036320582
0.00024409291
0.00030073576
0.0001880948
0.00024348869
0.00019172296
0.00014048226
0.00077396171
1.0027918e-05
-0.00077596342
0.00077226728
5.0471927e-05
0.00077085409
9.0644496e-05
0.00076964753
0.00013057911
0.0007685889
0.00016992345
0.00076763762
0.00020826884
0.00076675975
0.0002453007
0.00076592826
0.0002807825
0.00076512859
0.00031452342
0.00076436231
0.00034638801
0.00076364923
0.00037631768
0.00076302773
0.00040434702
0.0007625552
0.00043060153
0.00076230546
0.00045529362
0.00076236655
0.00047870024
0.00076283462
0.00050114452
0.00076381049
0.00052295649
0.00076539139
0.00054445141
0.00076766781
0.00056588888
0.00077071361
0.00058746624
0.000774581
0.00060928832
0.00077927973
0.00063137979
0.00078475245
0.00065365257
0.00079081087
0.0006759103
0.00079705066
0.00069776264
0.0008027007
0.00071856983
0.00080646817
0.00073724746
0.00080639269
0.00075216457
0.00079992748
0.00076098062
0.00078427385
0.00076092885
0.00075708979
0.00074918624
0.00071715384
0.00072387191
0.00066495342
0.00068442556
0.00060255922
0.00063244946
0.00053341591
0.00057066221
0.00046126058
0.00050361247
0.00038992393
0.00043454247
0.00032209053
0.00036856917
0.00025934124
0.00030623797
0.0002458104
0.00020525381
0.00076217776
1.2152744e-05
-0.00076430259
0.0007604062
5.2243491e-05
0.00075896022
9.2090475e-05
0.00075776736
0.00013177197
0.00075677316
0.00017091765
0.00075593844
0.00020910356
0.00075522859
0.00024601055
0.00075461451
0.00028139659
0.0007540789
0.00031505903
0.00075361957
0.00034684733
0.00075325147
0.00037668578
0.00075300709
0.0004045914
0.00075293753
0.00043067109
0.00075310959
0.00045512155
0.00075360483
0.00047820501
0.00075451289
0.00050023646
0.00075592925
0.00052154012
0.00075794627
0.00054243439
0.00076065233
0.00056318282
0.00076412124
0.00058399734
0.00076841355
0.000604996
0.00077355952
0.00062623382
0.00077955351
0.00064765858
0.0007863087
0.00066915511
0.0007936133
0.00069045804
0.00080101203
0.0007111711
0.00080768963
0.00073056986
0.00081227523
0.00074757898
0.00081279148
0.00076046436
0.00080669792
0.00076702241
0.00079137675
0.0007645074
0.00076464564
0.00075060303
0.00072557732
0.00072349387
0.00067463707
0.00068338972
0.00061401389
0.00063128539
0.00054669278
0.00057093358
0.00047644734
0.00050478791
0.00040667175
0.00043834476
0.00033909482
0.0003738149
0.0003053857
0.00027951951
0.00075045909
1.4367029e-05
-0.00075267338
0.00074863816
5.406443e-05
0.00074718045
9.3548182e-05
0.00074601664
0.00013293578
0.00074509647
0.00017183782
0.00074438262
0.00020981741
0.00074383982
0.00024655334
0.00074343754
0.00028179887
0.0007431565
0.00031534006
0.00074299108
0.00034701276
0.00074295215
0.00037672471
0.00074306695
0.0004044766
0.00074338085
0.0004303572
0.00074395446
0.00045454794
0.00074486339
0.00047729608
0.00074619104
0.00049890882
0.00074802821
0.00051970295
0.00075046227
0.00054000034
0.00075357927
0.00056006581
0.00075745075
0.00058012586
0.00076214054
0.00060030622
0.00076768677
0.00062068759
0.0007741101
0.00064123525
0.00078137611
0.0006618891
0.00078938684
0.00068244731
0.00079788439
0.00070267355
0.00080639181
0.00072206244
0.00081401343
0.00073995735
0.00081936369
0.0007551141
0.0008204031
0.000765983
0.00081472989
0.00077018062
0.00079979597
0.00076553695
0.00077377061
0.00074951923
0.00073572378
0.00072143656
0.00068642381
0.00068058535
0.00062767189
0.0006296855
0.00056245884
0.00057000095
0.000494516
0.0005062876
0.00042506886
0.00044326203
0.0003686259
0.00036182866
0.00073878006
1.6640028e-05
-0.00074105306
0.00073693515
5.5909337e-05
0.00073548557
9.4997766e-05
0.00073436526
0.00013405609
0.00073352895
0.00017267414
0.00073294075
0.00021040561
0.00073256519
0.0002469289
0.00073237079
0.00028199326
0.00073233657
0.00031537428
0.00073245429
0.00034689504
0.00073273109
0.00037644791
0.00073318947
0.00040401821
0.00073386997
0.00042967671
0.00073482722
0.00045359068
0.00073613162
0.00047599168
0.00073786073
0.0004971797
0.00074010091
0.00051746276
0.00074293477
0.00053716649
0.00074644614
0.00055655444
0.00075070341
0.00057586859
0.00075577205
0.00059523758
0.00076169133
0.00061476831
0.00076849582
0.00063443076
0.00077617496
0.00065420997
0.00078469552
0.00067392674
0.00079391185
0.00069345722
0.00080356853
0.00071240576
0.00081310455
0.00073042133
0.00082163458
0.00074658408
0.00082766037
0.00075995721
0.00082926516
0.00076857582
0.00082400545
0.00077079666
0.00080970576
0.00076381892
0.00078450278
0.00074663953
0.00074789224
0.0007171959
0.00070042612
0.00067715162
0.00064372695
0.00062670013
0.00058152384
0.00056849071
0.00051391154
0.00051087434
0.00043292673
0.00044961071
0.0007271196
1.8943485e-05
-0.00072942306
0.00072527414
5.7754797e-05
0.00072385082
9.6421087e-05
0.00072278794
0.00013511897
0.00072204494
0.00017341713
0.0007215876
0.00021086295
0.00072138039
0.00024713612
0.00072139103
0.00028198262
0.00072159766
0.00031516766
0.00072198941
0.0003465033
0.00072257056
0.00037586676
0.00072335914
0.00040322963
0.0007243914
0.00042864445
0.00072571653
0.00045226556
0.00072740023
0.00047430797
0.00072951431
0.00049506563
0.00073214155
0.00051483552
0.00073535945
0.00053394859
0.00073925023
0.00055266366
0.00074387843
0.00057124039
0.00074931082
0.00058980518
0.00075558487
0.00060849426
0.00076274351
0.00062727212
0.00077078425
0.00064616923
0.00077971058
0.00066500042
0.00078943448
0.00068373332
0.00079983771
0.00070200254
0.00081057063
0.0007196884
0.00082112021
0.0007360345
0.00083044976
0.00075062765
0.00083719667
0.00076182892
0.00083929877
0.00076869456
0.00083467693
0.00076844076
0.00082108261
0.00076023385
0.00079707256
0.00074120595
0.00076223853
0.00071198565
0.00071652303
0.00067241562
0.0006634123
0.00062160144
0.00060155237
0.00057273426
0.00049515911
0.00053932
0.00071546019
2.1251579e-05
-0.00071776828
0.00071363546
5.9579522e-05
0.00071225534
9.7801205e-05
0.00071126301
0.0001361113
0.00071062265
0.00017405749
0.00071030155
0.00021118405
0.00071026424
0.00024717343
0.00071047831
0.00028176855
0.00071092086
0.0003147251
0.00071157926
0.0003458449
0.00071245487
0.00037499115
0.00071356212
0.00040212238
0.0007149331
0.00042727347
0.00071661218
0.00045058647
0.0007186607
0.00047225946
0.00072114514
0.00049258118
0.00072414481
0.00051183585
0.00072773239
0.00053036101
0.00073198876
0.00054840729
0.00073697428
0.00056625486
0.00074275724
0.00058402222
0.00074937165
0.00060187986
0.00075686677
0.00061977699
0.00076524001
0.00063779599
0.00077451741
0.00065572301
0.00078463523
0.0006736155