/*--------------------------------*- C++ -*----------------------------------*\
| =========                 |                                                 |
| \\      /  F ield         | OpenFOAM: The Open Source CFD Toolbox           |
|  \\    /   O peration     | Version:  2.1.x                                 |
|   \\  /    A nd           | Web:      www.OpenFOAM.org                      |
|    \\/     M anipulation  |                                                 |
\*---------------------------------------------------------------------------*/
FoamFile
{
    version     2.0;
    format      ascii;
    class       volScalarField;
    location    "2";
    object      rAU;
}
// * * * * * * * * * * * * * * * * * * * * * * * * * * * * * * * * * * * * * //

dimensions      [0 0 1 0 0 0 0];

internalField   nonuniform List<scalar> 
51100
(
0.00017605599
0.00017774701
0.0001769829
0.00017615976
0.00017528413
0.00017436464
0.00017341218
0.0001724399
0.0001714632
0.00017049948
0.00016956782
0.00016868837
0.00016788169
0.00016716784
0.00016656533
0.00016609008
0.00016575444
0.00016556631
0.00016552857
0.00016563895
0.00016589004
0.00016626987
0.00016676266
0.00016734981
0.00016801099
0.00016872515
0.00016947154
0.00017023041
0.00017098356
0.00017171468
0.00017240948
0.00017305562
0.00017364258
0.00017416136
0.00017460418
0.00017496409
0.00017523462
0.00017540934
0.00017548146
0.00017578021
0.0001788766
0.00018209417
0.00018155572
0.00018096545
0.00018032811
0.00017965022
0.00017894025
0.00017820878
0.00017746858
0.0001767344
0.00017602263
0.00017535062
0.00017473593
0.00017419528
0.00017374358
0.00017339296
0.00017315202
0.00017302536
0.00017301327
0.00017311193
0.00017331362
0.00017360738
0.00017397971
0.00017441535
0.00017489813
0.00017541168
0.00017594016
0.00017646866
0.00017698359
0.00017747285
0.00017792584
0.00017833339
0.00017868758
0.00017898153
0.00017920914
0.00017936473
0.00017944277
0.00017943754
0.00017934277
0.00017937401
0.00017911018
0.00018246702
0.00018193181
0.00018134813
0.0001807207
0.00018005578
0.00017936145
0.00017864774
0.0001779267
0.00017721229
0.00017652012
0.00017586694
0.00017526992
0.00017474576
0.00017430962
0.00017397403
0.00017374795
0.00017363609
0.00017363866
0.00017375156
0.00017396682
0.00017427329
0.00017465741
0.00017510403
0.00017559721
0.00017612093
0.00017665968
0.00017719895
0.00017772557
0.00017822777
0.00017869531
0.00017911931
0.00017949217
0.00017980733
0.00018005901
0.00018024193
0.00018035104
0.00018038116
0.00018032673
0.00018029194
0.00017961962
0.0001827769
0.00018224046
0.00018165883
0.00018103696
0.00018038123
0.0001796997
0.00017900217
0.00017830025
0.00017760727
0.00017693797
0.00017630812
0.00017573389
0.00017523111
0.00017481436
0.00017449599
0.00017428517
0.00017418704
0.00017420226
0.00017432701
0.0001745534
0.00017487026
0.00017526406
0.00017571973
0.00017622155
0.00017675376
0.00017730121
0.00017784975
0.00017838655
0.00017890021
0.00017938076
0.00017981964
0.00018020949
0.00018054401
0.00018081771
0.00018102563
0.00018116311
0.00018122547
0.00018120771
0.00018110942
0.0001801324
0.00018304841
0.00018250894
0.0001819271
0.00018130812
0.00018065861
0.00017998675
0.00017930234
0.0001786168
0.00017794306
0.00017729524
0.00017668827
0.00017613736
0.00017565727
0.00017526163
0.00017496208
0.00017476744
0.000174683
0.00017470988
0.00017484482
0.00017508041
0.00017540576
0.00017580748
0.00017627064
0.00017677965
0.000177319
0.00017787385
0.00017843036
0.00017897603
0.00017949977
0.00017999192
0.00018044417
0.0001808494
0.00018120153
0.00018149532
0.00018172609
0.0001818895
0.00018198126
0.00018199689
0.00018183565
0.00018059288
0.00018329027
0.00018274761
0.00018216506
0.00018154805
0.0001809034
0.00018023943
0.00017956598
0.00017889443
0.00017823743
0.00017760869
0.00017702252
0.0001764933
0.00017603488
0.00017565991
0.00017537913
0.00017520075
0.0001751298
0.00017516759
0.00017531143
0.00017555456
0.00017588667
0.00017629469
0.00017676391
0.00017727887
0.00017782424
0.00017838539
0.00017894877
0.00017950216
0.00018003477
0.00018053722
0.00018100143
0.00018142053
0.00018178864
0.00018210072
0.00018235233
0.0001825394
0.00018265801
0.00018270408
0.00018248007
0.0001810043
0.00018350593
0.00018296058
0.00018237758
0.00018176255
0.00018112243
0.00018046565
0.0001798021
0.00017914306
0.00017850101
0.00017788934
0.00017732184
0.00017681228
0.00017637373
0.00017601799
0.00017575496
0.00017559212
0.00017553401
0.00017558189
0.00017573341
0.0001759825
0.00017631959
0.00017673223
0.00017720601
0.00017772569
0.00017827604
0.00017884255
0.00017941187
0.00017997201
0.00018051243
0.000181024
0.00018149891
0.00018193047
0.00018231302
0.0001826417
0.00018291229
0.00018312096
0.00018326407
0.0001833379
0.00018305193
0.0001813732
0.00018369788
0.00018315042
0.00018256744
0.00018195467
0.00018131918
0.00018066943
0.00018001531
0.000179368
0.0001787398
0.00017814377
0.00017759331
0.00017710163
0.00017668118
0.00017634303
0.00017609637
0.00017594795
0.00017590181
0.00017595892
0.00017611705
0.00017637067
0.00017671101
0.00017712641
0.00017760307
0.00017812605
0.00017868024
0.00017925119
0.00017982561
0.00018039165
0.00018093896
0.00018145865
0.00018194309
0.00018238584
0.00018278143
0.00018312517
0.00018341302
0.00018364137
0.00018380683
0.00018390599
0.00018356014
0.00018170453
0.00018386833
0.00018331932
0.00018273683
0.00018212669
0.00018149603
0.00018085334
0.00018020845
0.00017957244
0.00017895738
0.00017837603
0.00017784139
0.00017736619
0.00017696233
0.00017664028
0.0001764086
0.00017627346
0.00017623834
0.00017630387
0.00017646777
0.00017672482
0.00017706691
0.00017748329
0.00017796098
0.00017848559
0.00017904226
0.00017961657
0.00018019522
0.00018076639
0.00018131979
0.0001818467
0.00018233968
0.00018279248
0.00018319981
0.00018355718
0.00018386072
0.00018410701
0.00018429285
0.00018441514
0.0001840132
0.00018200252
0.0001840193
0.00018346928
0.00018288772
0.00018228055
0.00018165494
0.00018101938
0.00018038364
0.00017975864
0.00017915622
0.00017858884
0.00017806909
0.00017760928
0.00017722078
0.00017691355
0.00017669562
0.00017657263
0.00017654761
0.00017662086
0.0001767899
0.00017704963
0.00017739243
0.00017780833
0.00017828529
0.00017880972
0.00017936723
0.00017994359
0.00018052545
0.0001811009
0.00018165965
0.00018219299
0.00018269362
0.00018315546
0.0001835734
0.00018394312
0.0001842609
0.00018452352
0.00018472797
0.00018487136
0.00018441923
0.00018227079
0.0001841526
0.00018360208
0.00018302188
0.000182418
0.00018179765
0.00018116931
0.00018054265
0.00017992844
0.00017933827
0.00017878427
0.00017827868
0.00017783335
0.00017745919
0.0001771657
0.00017696041
0.00017684856
0.00017683279
0.00017691308
0.00017708676
0.00017734872
0.00017769162
0.00017810607
0.00017858091
0.00017910344
0.00017966005
0.00018023689
0.00018082069
0.00018139945
0.00018196274
0.00018250176
0.00018300927
0.00018347927
0.0001839068
0.0001842877
0.00018461843
0.00018489591
0.00018511733
0.00018528001
0.00018478599
0.00018251246
0.00018426988
0.00018371932
0.00018314088
0.0001825406
0.00018192573
0.00018130469
0.00018068706
0.00018008343
0.00017950516
0.00017896406
0.00017847198
0.00017804036
0.00017767967
0.00017739897
0.00017720537
0.00017710374
0.00017709641
0.0001771831
0.00017736097
0.00017762487
0.00017796756
0.00017838006
0.00017885186
0.00017937118
0.00017992525
0.0001805009
0.00018108516
0.00018166602
0.00018223288
0.00018277681
0.00018329044
0.00018376781
0.00018420403
0.00018459509
0.0001849376
0.00018522863
0.00018546555
0.00018564585
0.00018512092
0.00018273023
0.00018437261
0.00018382247
0.00018324616
0.00018264978
0.00018204056
0.00018142689
0.00018081825
0.00018022503
0.00017965834
0.00017912969
0.00017865056
0.00017823197
0.00017788399
0.00017761524
0.00017743248
0.00017734024
0.00017734059
0.00017743306
0.00017761468
0.00017788025
0.00017822259
0.00017863295
0.00017910128
0.00017961652
0.00018016678
0.00018073969
0.00018132282
0.00018190437
0.00018247367
0.00018302159
0.00018354057
0.00018402455
0.00018446866
0.00018486897
0.00018522221
0.00018552561
0.00018577668
0.0001859731
0.00018543123
0.00018292647
0.00018446214
0.00018391283
0.000183339
0.00018274678
0.0001821434
0.00018153718
0.00018093747
0.00018035449
0.00017979911
0.0001792825
0.0001788158
0.00017840963
0.00017807366
0.00017781613
0.00017764345
0.00017755985
0.00017756718
0.00017766481
0.00017784973
0.00017811668
0.00017845855
0.00017886673
0.00017933147
0.00017984224
0.00018038787
0.0001809568
0.00018153734
0.00018211809
0.00018268851
0.00018323932
0.00018376278
0.00018425261
0.00018470385
0.00018511259
0.00018547563
0.00018579033
0.00018605435
0.00018626554
0.00018572397
0.00018310327
0.00018453968
0.00018399159
0.00018342057
0.00018283276
0.00018223537
0.00018163666
0.00018104584
0.00018047295
0.0001799286
0.00017942366
0.00017896892
0.00017857462
0.00017825004
0.00017800306
0.00017783976
0.00017776412
0.00017777778
0.00017788002
0.00017806776
0.00017833578
0.00017867703
0.00017908302
0.00017954421
0.00018005042
0.00018059102
0.00018115517
0.00018173191
0.00018231046
0.0001828806
0.00018343308
0.00018395998
0.00018445481
0.00018491242
0.00018532882
0.00018570083
0.00018602589
0.00018630178
0.00018652652
0.00018600614
0.00018326247
0.00018460631
0.00018405981
0.00018349191
0.00018290874
0.00018231749
0.00018172634
0.00018114437
0.00018058141
0.00018004784
0.00017955422
0.000179111
0.00017872806
0.00017841431
0.00017817728
0.00017802275
0.00017795445
0.00017797386
0.00017808016
0.00017827026
0.000178539
0.00017887943
0.00017928318
0.00017974089
0.00018024261
0.0001807781
0.00018133705
0.00018190919
0.00018248439
0.00018305292
0.00018360576
0.00018413494
0.0001846338
0.00018509696
0.00018552026
0.00018590047
0.00018623503
0.00018652181
0.00018675892
0.00018628488
0.00018340568
0.00018466304
0.00018411847
0.00018355396
0.00018297564
0.00018239067
0.00018180712
0.00018123394
0.00018068078
0.00018015775
0.00017967513
0.00017924302
0.00017887097
0.00017856753
0.00017833991
0.00017819359
0.00017813208
0.0001781567
0.00017826657
0.00017845861
0.00017872772
0.00017906709
0.00017946849
0.00017992274
0.00018042007
0.00018095052
0.00018150417
0.00018207126
0.00018264229
0.00018320809
0.00018376003
0.00018429028
0.00018479208
0.00018525987
0.00018568928
0.00018607692
0.0001864202
0.000186717
0.00018696562
0.00018657031
0.00018353437
0.00018471076
0.00018416844
0.00018360758
0.00018303431
0.00018245572
0.00018187981
0.00018131538
0.00018077187
0.00018025916
0.00017978722
0.00017936586
0.00017900427
0.00017871067
0.00017849195
0.00017835333
0.0001782981
0.00017832747
0.00017844046
0.00017863403
0.00017890318
0.00017924122
0.00017964011
0.00018009085
0.00018058387
0.00018110941
0.0001816578
0.0001822197
0.00018278608
0.00018334833
0.00018389829
0.00018442841
0.00018493201
0.00018540342
0.00018583805
0.00018623235
0.0001865836
0.00018688964
0.00018714885
0.00018686341
0.00018364981
0.00018475028
0.00018421051
0.00018365353
0.00018308548
0.00018251338
0.00018194514
0.0001813894
0.00018085541
0.00018035279
0.00017989126
0.00017948029
0.00017912876
0.00017884456
0.00017863429
0.00017850291
0.00017845352
0.00017848719
0.00017860291
0.00017879765
0.00017906651
0.00017940297
0.00017979917
0.00018024631
0.00018073502
0.00018125573
0.00018179899
0.0001823557
0.00018291723
0.00018347541
0.00018402255
0.00018455151
0.0001850558
0.00018552974
0.00018596866
0.00018636877
0.00018672723
0.00018704175
0.00018731073
0.00018717806
0.00018375318
0.00018478234
0.00018424539
0.00018369252
0.00018312984
0.00018256433
0.00018200376
0.00018145665
0.00018093205
0.00018043933
0.00017998793
0.00017958703
0.00017924517
0.00017896997
0.00017876774
0.00017864318
0.00017859922
0.0001786368
0.00017875489
0.00017895048
0.00017921877
0.0001795534
0.00017994671
0.00018039012
0.00018087447
0.00018139039
0.0001819286
0.00018248022
0.00018303686
0.00018359071
0.00018413449
0.00018466145
0.00018516541
0.00018564084
0.00018608303
0.00018648806
0.00018685293
0.00018717518
0.00018745316
0.00018751903
0.00018384551
0.00018480761
0.00018427373
0.00018372517
0.00018316801
0.00018260915
0.00018205628
0.00018151774
0.00018100239
0.00018051937
0.00018007784
0.00017968669
0.00017935418
0.0001790876
0.00017889301
0.0001787749
0.00017873599
0.00017877714
0.00017889727
0.00017909342
0.00017936089
0.00017969347
0.00018008371
0.00018052324
0.00018100314
0.00018151424
0.00018204746
0.00018259406
0.00018314586
0.00018369528
0.00018423538
0.00018475976
0.00018526258
0.00018573853
0.000186183
0.000186592
0.00018696242
0.00018729163
0.00018757786
0.00018789147
0.00018392775
0.0001848267
0.00018429612
0.00018375206
0.00018320054
0.00018264841
0.00018210323
0.00018157319
0.00018106696
0.00018059345
0.00018016155
0.00017977986
0.00017945636
0.00017919807
0.00017901076
0.00017889873
0.00017886455
0.00017890896
0.00017903085
0.0001792273
0.00017949372
0.00017982405
0.00018021104
0.00018064656
0.0001811219
0.00018162812
0.00018215633
0.00018269796
0.00018324498
0.00018378998
0.00018432625
0.00018484768
0.00018534874
0.00018582439
0.00018627021
0.00018668224
0.00018705732
0.00018739269
0.00018768637
0.00018829757
0.00018400075
0.00018484017
0.00018431311
0.0001837737
0.00018322794
0.00018268258
0.00018214509
0.00018162349
0.00018112625
0.00018066206
0.00018023955
0.00017986705
0.00017955226
0.00017930192
0.00017912159
0.00017901532
0.00017898555
0.00017903293
0.00017915632
0.00017935285
0.00017961802
0.00017994593
0.00018032953
0.0001807609
0.00018123158
0.00018173283
0.00018225598
0.00018279263
0.0001833349
0.0001838755
0.00018440789
0.00018492616
0.00018542505
0.00018589977
0.00018634614
0.00018676031
0.00018713915
0.00018747984
0.00018778017
0.00018873505
0.00018406527
0.00018484851
0.00018432516
0.00018379056
0.00018325066
0.00018271213
0.0001821823
0.00018166907
0.00018118069
0.00018072564
0.0001803123
0.00017994874
0.00017964236
0.00017939968
0.000179226
0.00017912521
0.00017909957
0.00017914967
0.00017927434
0.00017947074
0.00017973449
0.00018005983
0.00018043991
0.00018086702
0.00018133292
0.00018182911
0.00018234714
0.00018287877
0.00018341626
0.00018395247
0.00018448096
0.00018499596
0.00018549243
0.00018596577
0.00018641205
0.00018682756
0.00018720929
0.00018755449
0.0001878606
0.00018919636
0.00018412202
0.00018485218
0.00018433273
0.00018380308
0.00018326911
0.00018273744
0.00018221527
0.00018171032
0.00018123069
0.00018078461
0.00018038022
0.00018002533
0.00017972711
0.0001794918
0.0001793245
0.0001792289
0.00017920714
0.00017925972
0.00017938546
0.00017958157
0.00017984375
0.0001801664
0.00018054284
0.00018096558
0.00018142662
0.00018191768
0.0001824305
0.00018295703
0.00018348972
0.0001840215
0.00018454607
0.00018505774
0.00018555163
0.00018602328
0.00018646897
0.0001868852
0.00018726902
0.00018761792
0.00018792896
0.00018966871
0.00018417161
0.0001848516
0.00018433622
0.00018381163
0.00018328369
0.00018275889
0.00018224435
0.00018174762
0.0001812766
0.00018083931
0.00018044367
0.00018009723
0.00017980691
0.00017957871
0.00017941752
0.00017932686
0.00017930874
0.0001793636
0.00017949023
0.00017968588
0.00017994636
0.00018026621
0.00018063893
0.00018105723
0.00018151333
0.00018199916
0.0001825067
0.00018302807
0.00018355587
0.00018408317
0.00018460377
0.00018511206
0.00018560326
0.00018607302
0.00018651777
0.0001869342
0.00018731943
0.00018767129
0.00018798647
0.00019013551
0.00018421463
0.00018484716
0.00018433599
0.00018381658
0.00018329471
0.00018277682
0.00018226987
0.00018178127
0.00018131875
0.0001808901
0.00018050301
0.00018016478
0.00017988211
0.00017966078
0.00017950545
0.0001794195
0.00017940482
0.00017946175
0.00017958911
0.00017978417
0.00018004284
0.00018035979
0.00018072871
0.00018114251
0.00018159361
0.00018207416
0.00018257634
0.00018309247
0.00018361531
0.00018413805
0.00018465462
0.00018515946
0.00018564786
0.00018611558
0.00018655913
0.0001869754
0.00018736148
0.00018771565
0.00018803424
0.0001905788
0.00018425161
0.0001848392
0.00018433237
0.00018381823
0.00018330251
0.00018279153
0.00018229213
0.00018181159
0.00018135743
0.00018093726
0.00018055852
0.00018022831
0.00017995306
0.00017973836
0.00017958867
0.00017950721
0.00017949575
0.0001795546
0.00017968253
0.00017987688
0.00018013365
0.00018044763
0.00018081269
0.00018122193
0.00018166799
0.0001821432
0.00018263997
0.00018315078
0.00018366858
0.00018418668
0.00018469913
0.00018520043
0.00018568595
0.00018615152
0.00018659365
0.00018700947
0.00018739598
0.00018775188
0.00018807328
0.00019098223
0.00018428302
0.00018482803
0.00018432568
0.0001838169
0.00018330736
0.00018280329
0.00018231141
0.00018183884
0.00018139293
0.00018098107
0.00018061051
0.0001802881
0.00018002006
0.00017981176
0.0001796675
0.00017959032
0.00017958191
0.00017964251
0.00017977089
0.00017996442
0.0001802192
0.00018053015
0.00018089132
0.00018129596
0.00018173693
0.00018220678
0.00018269809
0.00018320353
0.00018371622
0.00018422959
0.00018473781
0.00018523548
0.00018571801
0.00018618131
0.00018662186
0.00018703701
0.00018742362
0.00018778077
0.00018810447
0.00019133364
0.0001843093
0.00018481395
0.00018431618
0.00018381284
0.00018330952
0.00018281236
0.00018232796
0.00018186327
0.00018142549
0.00018102179
0.00018065923
0.00018034442
0.00018008338
0.00017988128
0.00017974224
0.00017966916
0.00017966364
0.00017972583
0.00017985454
0.00018004716
0.00018029988
0.00018060776
0.00018096499
0.00018136501
0.00018180088
0.00018226533
0.00018275115
0.00018325116
0.00018375868
0.00018426725
0.00018477115
0.00018526509
0.00018574449
0.00018620541
0.00018664423
0.00018705851
0.00018744499
0.00018780296
0.00018812857
0.00019162659
0.00018433087
0.00018479722
0.00018430414
0.0001838063
0.00018330923
0.00018281896
0.00018234199
0.00018188511
0.00018145533
0.00018105965
0.0001807049
0.00018039751
0.00018014328
0.00017994718
0.00017981317
0.00017974402
0.00017974122
0.00017980489
0.00017993381
0.00018012544
0.00018037605
0.00018068081
0.00018103408
0.00018142947
0.00018186023
0.00018231926
0.00018279956
0.00018329412
0.0001837964
0.0001843001
0.00018479959
0.0001852897
0.00018576586
0.00018622427
0.00018666121
0.00018707444
0.00018746059
0.00018781904
0.00018814622
0.00019186055
0.00018434807
0.00018477808
0.00018428978
0.0001837975
0.0001833067
0.00018282332
0.00018235371
0.00018190455
0.00018148266
0.00018109485
0.00018074776
0.00018044761
0.0001802
0.00018000971
0.00017988055
0.00017981516
0.00017981494
0.00017987996
0.00018000901
0.00018019957
0.00018044802
0.00018074963
0.00018109893
0.00018148968
0.00018191532
0.00018236893
0.0001828437
0.00018333278
0.00018382978
0.00018432855
0.00018482355
0.00018530973
0.00018578254
0.0001862383
0.00018667324
0.00018708521
0.00018747089
0.00018782952
0.00018815797
0.0001920398
0.00018436127
0.00018475676
0.00018427332
0.00018378665
0.00018330213
0.00018282561
0.00018236333
0.00018192179
0.00018150767
0.00018112759
0.000180788
0.00018049491
0.00018025374
0.00018006909
0.00017994461
0.00017988283
0.00017988505
0.00017995131
0.0001800804
0.00018026984
0.00018051608
0.00018081453
0.00018115984
0.00018154595
0.00018196648
0.00018241468
0.00018288391
0.0001833675
0.00018385919
0.00018435298
0.00018484341
0.00018532558
0.00018579493
0.0001862479
0.00018668073
0.00018709126
0.0001874763
0.00018783488
0.00018816434
0.0001921717
0.00018437075
0.00018473345
0.00018425495
0.00018377393
0.0001832957
0.00018282602
0.000182371
0.000181937
0.00018153054
0.00018115805
0.0001808258
0.0001805396
0.0001803047
0.00018012552
0.00018000557
0.00017994724
0.00017995179
0.00018001919
0.00018014823
0.00018033649
0.0001805805
0.00018087577
0.0001812171
0.00018159858
0.00018201401
0.00018245681
0.00018292051
0.0001833986
0.00018388494
0.00018437372
0.00018485952
0.0001853376
0.00018580339
0.00018625346
0.00018668404
0.00018709297
0.00018747721
0.00018783555
0.00018816574
0.00019226484
0.00018437682
0.00018470836
0.00018423485
0.00018375951
0.00018328758
0.0001828247
0.00018237688
0.00018195034
0.00018155141
0.00018118639
0.00018086132
0.00018058186
0.00018035306
0.00018017919
0.00018006361
0.00018000862
0.00018001537
0.00018008381
0.00018021274
0.00018039978
0.00018064152
0.0001809336
0.00018127096
0.00018164783
0.00018205818
0.0001824956
0.00018295377
0.00018342636
0.00018390736
0.00018439109
0.00018487221
0.00018534611
0.00018580828
0.00018625531
0.00018668354
0.0001870907
0.000187474
0.00018783192
0.00018816261
0.00019232752
0.00018437973
0.00018468163
0.00018421317
0.00018374355
0.00018327791
0.00018282181
0.00018238113
0.00018196195
0.00018157045
0.00018121275
0.00018089473
0.00018062185
0.00018039899
0.00018023028
0.00018011894
0.00018006714
0.00018007599
0.00018014539
0.00018027415
0.00018045992
0.00018069938
0.00018098827
0.00018132166
0.00018169395
0.00018209923
0.0001825313
0.00018298395
0.00018345106
0.0001839267
0.00018440536
0.00018488177
0.00018535143
0.0001858099
0.00018625378
0.00018667956
0.00018708482
0.00018746701
0.00018782435
0.00018815531
0.00019236681
0.00018437972
0.00018465344
0.00018419008
0.00018372619
0.00018326684
0.00018281748
0.00018238387
0.00018197197
0.00018158779
0.00018123728
0.00018092616
0.00018065971
0.00018044265
0.00018027895
0.0001801717
0.00018012299
0.00018013383
0.00018020411
0.00018033264
0.00018051711
0.00018075427
0.00018103998
0.00018136942
0.00018173714
0.00018213739
0.00018256413
0.0001830113
0.00018347293
0.00018394322
0.00018441679
0.00018488847
0.00018535383
0.00018580854
0.00018624918
0.00018667239
0.00018707564
0.00018745656
0.00018781319
0.00018814422
0.00019238821
0.00018437701
0.00018462393
0.00018416571
0.00018370756
0.00018325448
0.00018281182
0.00018238523
0.00018198051
0.00018160354
0.0001812601
0.00018095574
0.00018069558
0.00018048418
0.00018032535
0.00018022207
0.00018017632
0.00018018906
0.00018026015
0.0001803884
0.00018057154
0.0001808064
0.00018108893
0.00018141443
0.00018177763
0.00018217288
0.00018259432
0.00018303603
0.00018349221
0.00018395714
0.00018442562
0.00018489255
0.00018535356
0.00018580445
0.00018624178
0.00018666232
0.00018706344
0.00018744295
0.00018779874
0.00018812965
0.00019239569
0.00018437182
0.00018459322
0.00018414018
0.00018368779
0.00018324096
0.00018280497
0.00018238531
0.00018198769
0.00018161782
0.00018128133
0.0001809836
0.00018072959
0.0001805237
0.00018036961
0.00018027017
0.00018022729
0.00018024185
0.00018031368
0.00018044159
0.00018062338
0.00018085592
0.00018113529
0.00018145689
0.00018181558
0.00018220587
0.00018262206
0.00018305834
0.00018350908
0.00018396869
0.00018443206
0.00018489422
0.00018535086
0.00018579788
0.00018623183
0.00018664961
0.00018704852
0.00018742648
0.00018778131
0.00018811192
0.000192392
0.00018436433
0.00018456144
0.00018411361
0.00018366698
0.00018322639
0.00018279701
0.00018238423
0.00018199362
0.00018163074
0.00018130108
0.00018100985
0.00018076185
0.00018056134
0.00018041186
0.00018031616
0.00018027603
0.00018029232
0.00018036483
0.00018049238
0.00018067279
0.00018090302
0.00018117924
0.00018149696
0.00018185118
0.00018223655
0.00018264752
0.00018307841
0.00018352374
0.00018397805
0.00018443632
0.00018489371
0.00018534594
0.00018578905
0.00018621956
0.0001866345
0.0001870311
0.0001874074
0.00018776114
0.00018809132
0.00019237895
0.00018435472
0.0001845287
0.0001840861
0.00018364523
0.00018321086
0.00018278804
0.00018238208
0.00018199838
0.0001816424
0.00018131944
0.00018103458
0.00018079246
0.00018059721
0.00018045222
0.00018036014
0.00018032268
0.00018034063
0.00018041376
0.0001805409
0.00018071991
0.00018094783
0.00018122092
0.00018153479
0.00018188459
0.00018226507
0.00018267086
0.00018309642
0.00018353637
0.00018398539
0.00018443857
0.00018489118
0.00018533899
0.00018577815
0.00018620518
0.00018661719
0.00018701142
0.00018738594
0.0001877385
0.0001880681
0.00019235775
0.00018434315
0.00018449511
0.00018405775
0.00018362265
0.00018319446
0.00018277816
0.00018237893
0.00018200207
0.00018165287
0.00018133651
0.0001810579
0.00018082154
0.00018063141
0.0001804908
0.00018040224
0.00018036735
0.00018038688
0.00018046058
0.00018058728
0.00018076489
0.00018099051
0.00018126047
0.00018157053
0.00018191594
0.00018229159
0.00018269225
0.0001831125
0.00018354711
0.00018399088
0.00018443897
0.00018488681
0.00018533019
0.00018576536
0.00018618887
0.0001865979
0.00018698968
0.00018736233
0.00018771361
0.0001880425
0.00019232921
0.00018432978
0.00018446075
0.00018402865
0.0001835993
0.00018317727
0.00018276745
0.00018237489
0.00018200477
0.00018166225
0.00018135237
0.00018107989
0.00018084917
0.00018066405
0.00018052771
0.00018044255
0.00018041016
0.0001804312
0.00018050542
0.00018063165
0.00018080785
0.00018103116
0.00018129804
0.00018160431
0.00018194537
0.00018231625
0.00018271181
0.00018312681
0.00018355611
0.00018399466
0.0001844377
0.00018488076
0.0001853197
0.00018575086
0.00018617082
0.00018657681
0.00018696608
0.00018733678
0.00018768667
0.00018801474
0.00019229393
0.00018431474
0.00018442571
0.00018399889
0.00018357528
0.00018315938
0.00018275597
0.00018237001
0.00018200655
0.00018167062
0.0001813671
0.00018110064
0.00018087544
0.00018069522
0.00018056303
0.00018048119
0.00018045121
0.0001804737
0.0001805484
0.00018067413
0.00018084891
0.00018106993
0.00018133373
0.00018163626
0.00018197302
0.00018233916
0.00018272968
0.00018313948
0.00018356351
0.00018399687
0.00018443487
0.00018487317
0.00018530767
0.00018573481
0.00018615118
0.00018655408
0.00018694079
0.00018730945
0.00018765788
0.00018798503
0.00019225237
0.00018429816
0.00018439007
0.00018396854
0.00018355065
0.00018314084
0.00018274379
0.00018236436
0.00018200748
0.00018167803
0.00018138078
0.00018112021
0.00018090042
0.00018072499
0.00018059685
0.00018051825
0.0001804906
0.00018051448
0.0001805896
0.00018071482
0.00018088816
0.0001811069
0.00018136767
0.00018166648
0.00018199898
0.00018236044
0.00018274598
0.00018315061
0.00018356943
0.00018399763
0.00018443063
0.00018486417
0.00018529424
0.00018571734
0.0001861301
0.00018652988
0.00018691396
0.00018728053
0.00018762741
0.00018795356
0.00019220491
0.00018428017
0.00018435391
0.00018393766
0.00018352548
0.00018312173
0.00018273099
0.00018235802
0.00018200762
0.00018168456
0.00018139347
0.00018113869
0.0001809242
0.00018075344
0.00018062926
0.0001805538
0.00018052841
0.00018055362
0.00018062914
0.00018075382
0.00018092573
0.0001811422
0.00018139995
0.00018169509
0.00018202338
0.00018238021
0.00018276081
0.00018316034
0.00018357397
0.00018399706
0.00018442508
0.00018485389
0.00018527953
0.00018569858
0.00018610771
0.00018650433
0.00018688575
0.00018725016
0.00018759543
0.00018792048
0.00019215188
0.00018426088
0.00018431729
0.00018390632
0.00018349984
0.0001831021
0.00018271762
0.00018235103
0.00018200704
0.00018169027
0.00018140523
0.00018115614
0.00018094684
0.00018078066
0.00018066034
0.00018058793
0.00018056473
0.00018059122
0.0001806671
0.00018079121
0.00018096169
0.00018117592
0.00018143067
0.00018172219
0.00018204631
0.00018239855
0.00018277428
0.00018316874
0.00018357726
0.00018399526
0.00018441834
0.00018484243
0.00018526366
0.00018567865
0.00018608415
0.00018647757
0.00018685629
0.00018721849
0.00018756208
0.00018788596
0.00019209359
0.00018424039
0.00018428028
0.00018387458
0.00018347377
0.00018308201
0.00018270373
0.00018234346
0.00018200578
0.00018169521
0.00018141613
0.00018117262
0.0001809684
0.0001808067
0.00018069015
0.00018062072
0.00018059964
0.00018062736
0.00018070356
0.0001808271
0.00018099615
0.00018120814
0.00018145993
0.00018174785
0.00018206786
0.00018241557
0.00018278647
0.00018317593
0.00018357937
0.00018399233
0.0001844105
0.00018482991
0.00018524673
0.00018565767
0.00018605952
0.00018644973
0.00018682571
0.00018718565
0.0001875275
0.00018785014
0.00019203033
0.0001842188
0.00018424293
0.0001838425
0.00018344733
0.00018306151
0.00018268937
0.00018233535
0.0001820039
0.00018169944
0.00018142621
0.00018118818
0.00018098895
0.00018083163
0.00018071876
0.00018065223
0.00018063321
0.00018066211
0.0001807386
0.00018086156
0.00018102917
0.00018123894
0.00018148781
0.00018177218
0.00018208811
0.00018243135
0.00018279748
0.00018318199
0.0001835804
0.00018398837
0.00018440167
0.00018481641
0.00018522884
0.00018563573
0.00018603393
0.0001864209
0.00018679411
0.00018715175
0.00018749181
0.00018781316
0.00019196237
0.00018419619
0.00018420528
0.00018381012
0.00018342057
0.00018304064
0.00018267459
0.00018232674
0.00018200145
0.00018170301
0.00018143554
0.00018120289
0.00018100854
0.00018085551
0.00018074624
0.00018068253
0.00018066551
0.00018069555
0.0001807723
0.00018089466
0.00018106084
0.00018126841
0.00018151438
0.00018179524
0.00018210715
0.00018244597
0.00018280738
0.00018318699
0.00018358043
0.00018398345
0.00018439191
0.00018480201
0.00018521009
0.00018561293
0.00018600747
0.00018639119
0.00018676161
0.00018711692
0.00018745514
0.00018777513
0.00019188996
0.00018417264
0.00018416741
0.0001837775
0.00018339352
0.00018301945
0.00018265943
0.00018231768
0.00018199847
0.00018170595
0.00018144414
0.00018121678
0.00018102723
0.0001808784
0.00018077264
0.00018071169
0.00018069661
0.00018072774
0.00018080473
0.00018092647
0.00018109123
0.00018129662
0.00018153971
0.00018181711
0.00018212505
0.0001824595
0.00018281625
0.00018319102
0.00018357953
0.00018397765
0.00018438132
0.00018478681
0.00018519054
0.00018558936
0.00018598023
0.0001863607
0.0001867283
0.00018708125
0.00018741759
0.00018773617
0.00019181334
0.00018414824
0.00018412933
0.00018374466
0.00018336624
0.00018299798
0.00018264392
0.00018230821
0.00018199499
0.00018170832
0.00018145208
0.00018122991
0.00018104506
0.00018090034
0.00018079802
0.00018073975
0.00018072656
0.00018075874
0.00018083594
0.00018095707
0.00018112041
0.00018132364
0.00018156389
0.00018183786
0.00018214188
0.00018247202
0.00018282416
0.00018319414
0.00018357778
0.00018397104
0.00018436996
0.00018477088
0.00018517028
0.00018556508
0.0001859523
0.00018632951
0.00018669428
0.00018704483
0.00018737925
0.00018769638
0.00019173273
0.00018412305
0.0001840911
0.00018371165
0.00018333876
0.00018297626
0.00018262811
0.00018229837
0.00018199106
0.00018171014
0.00018145939
0.00018124232
0.00018106208
0.00018092139
0.00018082243
0.00018076678
0.00018075542
0.00018078862