/*--------------------------------*- C++ -*----------------------------------*\
| =========                 |                                                 |
| \\      /  F ield         | OpenFOAM: The Open Source CFD Toolbox           |
|  \\    /   O peration     | Version:  2.1.x                                 |
|   \\  /    A nd           | Web:      www.OpenFOAM.org                      |
|    \\/     M anipulation  |                                                 |
\*---------------------------------------------------------------------------*/
FoamFile
{
    version     2.0;
    format      ascii;
    class       volVectorField;
    location    "2";
    object      U;
}
// * * * * * * * * * * * * * * * * * * * * * * * * * * * * * * * * * * * * * //

dimensions      [0 1 -1 0 0 0 0];

internalField   nonuniform List<vector> 
51100
(
(1.2949585 1.224936 -5.9802447e-20)
(1.3156368 1.1378265 -3.5108031e-20)
(1.3164234 1.0332402 -4.6297854e-20)
(1.2935514 0.91494967 5.6978303e-21)
(1.2460861 0.78802261 -7.6708758e-20)
(1.1757139 0.65852342 -9.1221594e-20)
(1.0858019 0.53255245 -2.9981623e-19)
(0.98065903 0.41531714 -4.6174463e-21)
(0.86508477 0.31067932 3.3931163e-19)
(0.74397697 0.22106608 0)
(0.62201609 0.14757787 5.9152329e-20)
(0.50344684 0.090142663 -5.9196943e-20)
(0.39196328 0.047742404 2.2841194e-21)
(0.29060303 0.018715954 5.8102916e-20)
(0.20165402 0.0010216144 1.7083051e-21)
(0.12652075 -0.0075715256 0)
(0.065636081 -0.0093393732 -4.8413817e-23)
(0.018452508 -0.0064314148 -5.8816894e-20)
(-0.01619171 -0.00067070714 1.1553845e-20)
(-0.0400637 0.0063224924 0)
(-0.0552121 0.013516455 8.2286404e-20)
(-0.063517822 0.020184726 7.9031671e-20)
(-0.066748009 0.025917912 -7.6143213e-20)
(-0.066380123 0.030539221 1.4705298e-19)
(-0.063653692 0.033980152 0)
(-0.05971475 0.036364379 3.4303392e-20)
(-0.055296736 0.038113817 3.3330259e-20)
(-0.050803214 0.039428752 -6.5246369e-20)
(-0.04645284 0.040362687 0)
(-0.042250957 0.040862745 6.1657312e-20)
(-0.038080669 0.040748999 -3.5756715e-22)
(-0.033779592 0.0397732 -1.762461e-19)
(-0.02923694 0.03769371 2.607718e-22)
(-0.024443891 0.034354745 1.1202251e-19)
(-0.019506648 0.029754521 -1.6407137e-19)
(-0.01462785 0.024089408 1.0713402e-19)
(-0.010068616 0.017767467 -2.1043598e-19)
(-0.0060725048 0.011351036 0)
(-0.0026838055 0.0053391363 0)
(0.00038386745 -0.00039171097 -2.5176458e-20)
(2.3706236 2.2200974 -1.0452968e-20)
(2.4745373 2.1457027 8.7966869e-20)
(2.5567056 2.0457348 4.6285902e-20)
(2.6109358 1.9198195 0)
(2.6310354 1.7685596 7.5648428e-20)
(2.612298 1.5949728 8.6507896e-21)
(2.5515527 1.4042302 1.8525832e-19)
(2.4472007 1.2030601 1.0525932e-19)
(2.2997209 0.99926437 -3.3141822e-19)
(2.1123005 0.80118501 1.1750789e-19)
(1.8912495 0.61697429 -1.7765342e-19)
(1.645896 0.45363271 -9.948808e-23)
(1.3879235 0.31608779 -5.6899622e-20)
(1.1298721 0.20657194 1.6457975e-20)
(0.8834985 0.12479402 5.5889473e-20)
(0.65847197 0.068470623 -1.245532e-20)
(0.46162 0.033918595 -2.3660278e-20)
(0.29660864 0.016690195 1.1926673e-19)
(0.16419376 0.012309466 -2.7664511e-21)
(0.062606953 0.016381017 -8.3462747e-20)
(-0.011694722 0.025431183 -8.2736965e-20)
(-0.063054955 0.036708144 -1.7837666e-19)
(-0.096054762 0.04828339 9.5890451e-20)
(-0.11502891 0.058965039 -1.1047125e-19)
(-0.12380783 0.068124618 3.6116465e-20)
(-0.12554243 0.075564939 0)
(-0.12268234 0.081576398 0)
(-0.11714905 0.086399172 0)
(-0.11015934 0.090060487 -1.2740005e-19)
(-0.10241399 0.092318172 -1.2398673e-19)
(-0.094232429 0.092820274 6.0148591e-20)
(-0.085668439 0.091173558 -5.8906061e-20)
(-0.076713547 0.087060981 5.7136004e-20)
(-0.067399603 0.080349478 -5.597546e-20)
(-0.057842677 0.071165222 -1.4297909e-22)
(-0.048243623 0.059929071 5.3301414e-20)
(-0.03888007 0.047358165 5.2246449e-20)
(-0.030036607 0.034346156 0)
(-0.021820578 0.021771436 -5.0557703e-20)
(-0.012173281 0.0081024451 0)
(2.7318897 2.3757087 1.116193e-20)
(2.8803685 2.3492081 -4.404314e-20)
(3.0159517 2.3003749 0)
(3.1323743 2.2262068 0)
(3.2234067 2.125161 6.1822211e-20)
(3.2827952 1.9975974 -1.3705085e-19)
(3.3042611 1.8454037 -1.0397789e-20)
(3.28171 1.6717325 1.7688331e-19)
(3.2098113 1.4809977 -1.9518346e-19)
(3.0847986 1.2789054 3.0907902e-19)
(2.9053641 1.0723484 -1.0932321e-19)
(2.6735106 0.86908115 5.4858153e-20)
(2.3953789 0.6772193 -2.6634488e-20)
(2.0816611 0.50438619 -2.6717036e-20)
(1.7474201 0.35689748 0)
(1.4105467 0.23880513 -2.4587186e-20)
(1.089029 0.15118451 4.8304272e-20)
(0.79792313 0.092103178 -4.5790845e-20)
(0.54728074 0.057405814 -4.3375859e-20)
(0.34154208 0.041597739 8.3402296e-20)
(0.18018143 0.039158725 0)
(0.059238787 0.045163407 2.7536908e-22)
(-0.02719385 0.055689885 0)
(-0.085672448 0.067949254 0)
(-0.12249331 0.080221416 0)
(-0.14320734 0.091612066 3.3418232e-20)
(-0.15250322 0.10169602 -3.2866733e-20)
(-0.15411679 0.11028679 0)
(-0.15085252 0.11716006 3.0910082e-19)
(-0.14467662 0.12187231 -1.2063418e-19)
(-0.13674625 0.12392233 5.8895278e-20)
(-0.12771505 0.12284312 -1.1453969e-19)
(-0.1179133 0.11836904 -1.1174382e-19)
(-0.10750855 0.11048619 -5.4683808e-20)
(-0.096612044 0.099468484 -1.5059133e-22)
(-0.085334695 0.085876378 0)
(-0.073842209 0.070546787 -1.0214273e-19)
(-0.062308133 0.054454172 2.0076605e-19)
(-0.050871454 0.038646068 -1.9747935e-19)
(-0.035925436 0.020221599 9.7329302e-20)
(2.8077378 2.2602819 -3.9976562e-20)
(2.9645883 2.2668701 0)
(3.1182292 2.2551689 2.6772657e-20)
(3.262551 2.2220591 0)
(3.392248 2.1657362 4.7914142e-20)
(3.5019917 2.0857076 -4.7249966e-22)
(3.5857584 1.9823167 0)
(3.636754 1.8565832 -1.6072265e-19)
(3.6477854 1.7103445 2.2738124e-21)
(3.611811 1.5464249 -3.3372929e-21)
(3.5225836 1.3687017 -1.8907276e-19)
(3.3753614 1.1820378 4.7390206e-20)
(3.16786 0.9922023 7.6275921e-20)
(2.9014179 0.80573265 1.2761064e-20)
(2.5823981 0.62967418 0)
(2.2232309 0.47107811 -3.5248661e-20)
(1.8423749 0.33619219 6.3535535e-22)
(1.4622573 0.22930144 -1.0318724e-20)
(1.1051352 0.15171458 3.1295595e-20)
(0.78860558 0.10137667 -4.9131951e-21)
(0.52281053 0.073746566 -7.165746e-20)
(0.31040727 0.063137447 7.4098613e-20)
(0.14830837 0.063984118 0)
(0.030027259 0.071672704 -6.8910639e-20)
(-0.052266743 0.08284368 3.326043e-20)
(-0.10636474 0.095320409 9.7200783e-20)
(-0.1393159 0.1077403 0)
(-0.15711114 0.11918986 0)
(-0.1645981 0.12887455 -1.202142e-19)
(-0.16540912 0.13603114 2.3431443e-19)
(-0.16207509 0.13996044 0)
(-0.15621621 0.14013228 5.5831146e-20)
(-0.1487541 0.13630041 1.2077343e-22)
(-0.14017039 0.1285621 2.1289472e-19)
(-0.13067785 0.11731564 -5.1771859e-20)
(-0.12034997 0.10321447 1.0197493e-19)
(-0.10924941 0.087141763 9.9766854e-20)
(-0.097405177 0.070065141 -1.4163739e-22)
(-0.08488897 0.053065477 -9.6561002e-20)
(-0.067133021 0.032559081 4.7478467e-20)
(2.8179603 2.1036977 2.1914582e-20)
(2.9644029 2.1240706 1.1090157e-20)
(3.113456 2.1303605 -2.6178401e-20)
(3.2597186 2.1194223 -2.4922606e-20)
(3.3990444 2.0896774 -3.6617433e-20)
(3.5276638 2.040638 -2.0250841e-20)
(3.6411001 1.9722335 4.7590109e-20)
(3.7338109 1.8846427 0)
(3.7993426 1.7784673 1.5028371e-19)
(3.8306303 1.6549174 -7.5323946e-20)
(3.8203111 1.5158872 4.4495826e-20)
(3.7610546 1.3639263 -4.629869e-20)
(3.6460772 1.2022159 0)
(3.4699501 1.0345973 2.2165647e-20)
(3.2298878 0.86562627 0)
(2.9275154 0.70065462 0)
(2.5708909 0.5458318 -6.7547642e-22)
(2.1759446 0.40770174 2.0778034e-20)
(1.7658078 0.29224386 0)
(1.3670131 0.20330585 -7.6440655e-20)
(1.0034604 0.1414215 1.4776567e-19)
(0.69137619 0.10378226 0)
(0.43757572 0.085420629 -6.8616844e-20)
(0.24091448 0.080812655 3.25602e-22)
(0.095199003 0.085068963 0)
(-0.0080536049 0.094462366 -1.2617022e-19)
(-0.077733588 0.10634318 0)
(-0.12211602 0.11878873 0)
(-0.14838099 0.13025206 0)
(-0.16232775 0.1394214 -1.1393824e-19)
(-0.16830777 0.14523409 5.548241e-20)
(-0.16930595 0.147013 -1.6302933e-19)
(-0.16718432 0.14448122 1.0609801e-19)
(-0.16297751 0.13776835 -5.1915812e-20)
(-0.15717623 0.12734105 -1.5223722e-19)
(-0.14994311 0.11389973 1.9892411e-19)
(-0.14132087 0.098332684 -1.9523762e-19)
(-0.13124619 0.081569884 0)
(-0.1196853 0.064627501 4.7106246e-20)
(-0.10177271 0.04383392 2.6846584e-23)
(2.8220902 1.9619098 2.9147804e-20)
(2.953128 1.9882722 -1.0855776e-20)
(3.0894714 2.0031811 0)
(3.2265352 2.003552 0)
(3.3610127 1.9881192 2.5720308e-20)
(3.4903232 1.9566908 2.6950275e-20)
(3.6114672 1.9093247 -8.1744164e-20)
(3.7205166 1.8461333 -7.8286727e-21)
(3.812633 1.7674459 7.7410711e-22)
(3.8822073 1.6739519 -6.1961329e-20)
(3.9229456 1.5667289 -7.1483669e-20)
(3.9279019 1.4471879 3.7883075e-20)
(3.8895745 1.3170035 -4.0764928e-20)
(3.800178 1.1780979 1.9732441e-20)
(3.6522671 1.0327034 0)
(3.4399227 0.88355185 -2.0470665e-20)
(3.1606858 0.73421227 5.6354141e-22)
(2.818223 0.58942189 2.9777164e-20)
(2.4249243 0.45518741 -7.3678964e-21)
(2.0026995 0.33806388 7.6325839e-20)
(1.5799403 0.2435482 -1.5520833e-19)
(1.1849467 0.17426388 8.6973374e-21)
(0.83909171 0.12919735 5.0151979e-20)
(0.55335003 0.10449609 8.081605e-20)
(0.3290165 0.095094739 -3.1095018e-20)
(0.1607831 0.096130096 3.066858e-20)
(0.039989769 0.10359659 0)
(-0.043057442 0.11434404 -1.7362496e-19)
(-0.097713134 0.12584717 5.6821139e-20)
(-0.13217111 0.13604627 0)
(-0.15300485 0.14336232 0)
(-0.16502789 0.14678121 4.7461743e-23)
(-0.17143612 0.14587625 1.0345545e-19)
(-0.1741485 0.14072266 0)
(-0.17417037 0.1317761 -9.8991186e-20)
(-0.17193104 0.11973267 9.7264866e-20)
(-0.16757723 0.10545257 9.5259488e-20)
(-0.16104554 0.089814451 -1.1542401e-22)
(-0.15221952 0.07372201 -1.8419147e-19)
(-0.13647052 0.053796187 4.5409131e-20)
(2.8263641 1.8366486 4.3987169e-21)
(2.943227 1.8669361 0)
(3.0664227 1.8873648 1.3698925e-20)
(3.1920636 1.8949189 8.9774737e-21)
(3.3173704 1.8884716 -9.031982e-21)
(3.4404111 1.8679892 -2.6645905e-20)
(3.5591193 1.8336727 2.8185817e-20)
(3.670781 1.7857652 0)
(3.7719981 1.7246894 1.2249294e-21)
(3.8587727 1.6511536 1.1964861e-19)
(3.9265029 1.5661324 -5.8618954e-20)
(3.9698692 1.4707615 -1.8205675e-21)
(3.9826788 1.3662112 1.5814577e-20)
(3.9577538 1.2535837 -6.5907e-22)
(3.8869717 1.1338792 3.7697955e-20)
(3.761658 1.0080734 -1.8907845e-20)
(3.573604 0.87740256 1.899965e-20)
(3.317076 0.74384751 3.6316574e-20)
(2.9919068 0.61079298 0)
(2.6070619 0.48345356 -6.9376776e-20)
(2.1825957 0.3684698 1.0609172e-21)
(1.7474383 0.27228625 -6.5512717e-20)
(1.3326421 0.19899208 0)
(0.9634013 0.14906381 -9.2773418e-20)
(0.65422194 0.1197687 3.0481525e-20)
(0.40880403 0.10665794 2.9352423e-20)
(0.22295606 0.10500205 -1.1515125e-19)
(0.088061794 0.11053396 1.9675264e-19)
(-0.006225641 0.1196322 -1.0984063e-19)
(-0.070143128 0.12931689 0)
(-0.11263555 0.13729166 0)
(-0.14072898 0.14203154 1.0307398e-19)
(-0.15940272 0.14277821 -1.5136038e-19)
(-0.17184898 0.13942664 -1.3310024e-22)
(-0.17990779 0.13233253 -1.4511913e-19)
(-0.18450924 0.12212778 9.5011565e-20)
(-0.18607053 0.10960946 9.3054571e-20)
(-0.18465173 0.095592068 -2.325385e-22)
(-0.18013325 0.080856906 -9.0133974e-20)
(-0.16849961 0.06253806 0)
(2.8299925 1.7249396 1.3582403e-19)
(2.9346969 1.75816 -4.0822066e-20)
(3.0461678 1.7826911 -1.3563195e-20)
(3.1610847 1.7956489 -3.1046236e-21)
(3.2770142 1.7959247 -1.7839915e-20)
(3.3923118 1.783451 1.1607711e-20)
(3.5053493 1.7584108 -5.5295964e-20)
(3.6140865 1.7210711 -3.6271986e-20)
(3.7160416 1.6719193 3.6354439e-20)
(3.8083789 1.611763 1.0049777e-19)
(3.8879128 1.5416903 -7.8333939e-20)
(3.9509841 1.462937 2.5699485e-20)
(3.9932318 1.3767189 -4.8016461e-20)
(4.0093035 1.2840612 -9.9766373e-22)
(3.9925562 1.1856612 3.3764763e-20)
(3.9348751 1.0818206 0)
(3.8268214 0.97254775 0)
(3.6585025 0.85788411 -4.3845407e-20)
(3.4215942 0.73854803 8.5654705e-21)
(3.1128257 0.61680047 7.1509886e-20)
(2.7382972 0.49715578 1.255678e-19)
(2.3163379 0.38616182 1.6651436e-20)
(1.8758567 0.2907731 3.0352901e-20)
(1.4495091 0.21601726 7.531024e-20)
(1.0650669 0.16344829 -2.9080496e-20)
(0.73969406 0.13125798 2.8702957e-20)
(0.47909742 0.11555354 8.4010704e-20)
(0.28008924 0.11171816 -8.1951835e-20)
(0.134105 0.11526351 1.0697232e-19)
(0.030296198 0.12225365 1.0448036e-19)
(-0.042172567 0.12952316 0)
(-0.09262892 0.13484163 0)
(-0.12819656 0.13693428 9.8380477e-20)
(-0.15377272 0.13535175 0)
(-0.17241297 0.13023594 -9.4408751e-20)
(-0.18584859 0.12208201 9.2824348e-20)
(-0.19498584 0.11158158 1.8202505e-19)
(-0.20016917 0.099467052 -1.1195336e-22)
(-0.20140655 0.086406657 0)
(-0.19556346 0.07017474 0)
(2.8326258 1.6246036 -5.5918981e-20)
(2.9268326 1.6599799 0)
(3.0279967 1.6876123 2.7822509e-20)
(3.1333124 1.7048303 1.4675619e-21)
(3.2406318 1.7105236 7.9580477e-21)
(3.3484564 1.7045036 0)
(3.455339 1.6868293 0)
(3.5595544 1.6576809 5.7944569e-21)
(3.6590932 1.6174984 -5.8882946e-21)
(3.7517708 1.5670849 7.8181962e-20)
(3.835281 1.5075822 -6.6563433e-20)
(3.9071366 1.4403504 -2.7624792e-21)
(3.9644897 1.3667954 2.9088055e-21)
(4.0038377 1.2881659 0)
(4.0206174 1.2053517 0)
(4.0087453 1.1187063 0)
(3.9602215 1.0279766 0)
(3.865083 0.93240609 7.9598576e-21)
(3.7121304 0.83112785 -3.8986034e-20)
(3.49101 0.72390937 6.1507696e-20)
(3.1960569 0.61219907 -1.3068651e-19)
(2.8312497 0.50001194 6.8524353e-20)
(2.4136599 0.39378185 -9.1767439e-22)
(1.9720427 0.30070748 2.8721431e-20)
(1.5399073 0.22633942 -2.8839248e-22)
(1.1465729 0.17291206 -2.318477e-22)
(0.81095714 0.13925771 -2.7139966e-20)
(0.54017048 0.12187611 0)
(0.33170583 0.11622742 1.0360904e-19)
(0.17700868 0.11771921 -2.0344431e-19)
(0.064929211 0.12233222 0)
(-0.015594811 0.12699914 9.7735371e-20)
(-0.073881315 0.12974494 -4.7915619e-20)
(-0.11686922 0.12959861 4.7087512e-20)
(-0.14923088 0.1263481 -9.2220388e-20)
(-0.17385432 0.12025859 9.0700143e-20)
(-0.19241075 0.11185999 -8.898964e-20)
(-0.20573597 0.10177522 8.7441185e-20)
(-0.21414303 0.090572686 -8.6216933e-20)
(-0.21559783 0.076750831 0)
(2.8339915 1.5339173 -4.6528921e-20)
(2.9190688 1.57085 4.8264992e-20)
(3.0111461 1.6008158 -5.9702934e-20)
(3.1079053 1.6214156 0)
(3.2074622 1.6315536 -1.6929821e-21)
(3.3084284 1.6309061 -6.9273215e-21)
(3.4094523 1.6193809 8.8381606e-21)
(3.5089658 1.5970298 3.903489e-20)
(3.6051916 1.5641797 -2.89495e-20)
(3.6962612 1.5215352 0)
(3.7803121 1.4701802 -3.8499186e-20)
(3.8555059 1.4114909 -2.1632779e-21)
(3.9199456 1.346991 4.8765962e-20)
(3.9714705 1.2781571 0)
(4.0073033 1.2061981 8.2287463e-22)
(4.0235491 1.1318242 0)
(4.0145866 1.0550658 -1.4613614e-20)
(3.9725074 0.97519773 1.4644393e-20)
(3.8869023 0.8908698 5.7100714e-20)
(3.7455055 0.80054378 -5.4342465e-20)
(3.5363792 0.70333322 5.5390824e-20)
(3.2521385 0.60017977 0)
(2.89542 0.49481669 -5.6978162e-20)
(2.4826066 0.39359708 5.5011105e-20)
(2.0423521 0.30378038 0)
(1.6085108 0.2311165 2.6637606e-20)
(1.211117 0.17817044 -1.3533479e-22)
(0.86999149 0.14412878 -2.5757671e-20)
(0.5929822 0.12572648 -1.0101323e-19)
(0.37791323 0.11851726 4.9656851e-20)
(0.21623907 0.11796679 4.860632e-20)
(0.096789793 0.12021501 -1.9063435e-19)
(0.0086597887 0.1224741 9.3503446e-20)
(-0.05714987 0.12308637 1.3768899e-19)
(-0.10722898 0.1213289 -1.3521657e-19)
(-0.14598455 0.11712057 8.8635736e-20)
(-0.17617331 0.11075332 1.7399571e-19)
(-0.19937719 0.10269874 -1.4400774e-22)
(-0.21643355 0.093429847 -1.6863911e-19)
(-0.22662964 0.082251876 8.2840846e-20)
(2.8338989 1.4514771 -5.4734467e-20)
(2.9109918 1.4895014 -4.6254735e-20)
(2.9950288 1.5212059 -4.130738e-21)
(3.0841523 1.5444916 -2.4726196e-20)
(3.1767196 1.5582903 1.8412683e-21)
(3.2714416 1.5621541 -6.4287876e-21)
(3.367043 1.5558482 -6.3779696e-21)
(3.4620628 1.5392989 -5.4300496e-21)
(3.5548602 1.512706 2.3680951e-20)
(3.6437243 1.4766368 -1.9271807e-20)
(3.7269907 1.4320468 -2.994881e-20)
(3.8031164 1.3802285 -2.1762207e-21)
(3.8706839 1.3227045 -1.8380715e-21)
(3.9283073 1.2610647 2.2213116e-20)
(3.9743985 1.1967633 -1.5371028e-21)
(4.0067639 1.1308826 0)
(4.0220142 1.0639071 0)
(4.0148425 0.99554445 2.6217479e-20)
(3.9773303 0.92466943 -2.7996406e-20)
(3.8986219 0.84947865 5.3483272e-20)
(3.7655408 0.76797143 -6.0353649e-20)
(3.5649478 0.67887112 -6.7681916e-21)
(3.2883765 0.58288185 2.9606462e-23)
(2.9378644 0.48364455 -1.1884312e-19)
(2.5296434 0.38745668 7.7657035e-20)
(2.0923475 0.30149167 2.5747711e-20)
(1.6597856 0.23144107 -2.5405838e-20)
(1.2620177 0.17991453 4.9807791e-20)
(0.91900775 0.14622428 -4.9052589e-20)
(0.63874706 0.12724915 0)
(0.41913003 0.1187 -9.4455563e-20)
(0.2517158 0.11627288 9.3001008e-20)
(0.12561962 0.11642747 -1.8254334e-19)
(0.030397414 0.11672537 -8.9705309e-20)
(-0.042445246 0.11579072 0)
(-0.099091042 0.11306281 4.4400827e-23)
(-0.14369882 0.10849727 -8.4983917e-20)
(-0.17888318 0.10235238 8.3807145e-20)
(-0.20625188 0.094984641 -1.7017646e-23)
(-0.22667325 0.08664837 -8.1022937e-20)
(2.8322217 1.3761322 5.3750263e-20)
(2.9022978 1.4148827 4.5369331e-20)
(2.979198 1.4478602 1.9484436e-20)
(3.0614961 1.4732756 6.872862e-20)
(3.1477642 1.4900932 2.2381702e-20)
(3.2368025 1.4977553 -5.9613822e-21)
(3.3274092 1.495904 1.1660377e-21)
(3.4182181 1.484357 0)
(3.5076943 1.4631976 0)
(3.5942256 1.4328539 4.0525118e-21)
(3.6762411 1.3941304 0)
(3.752313 1.3481841 -1.5265212e-20)
(3.8212177 1.2964507 0)
(3.8819288 1.2405179 0)
(3.9335032 1.1819549 7.1694047e-22)
(3.974818 1.1221017 0)
(4.0041135 1.0618447 0)
(4.0183347 1.0014033 -1.9297973e-20)
(4.0123206 0.94017545 -3.0749655e-20)
(3.9780172 0.87670448 -4.890806e-20)
(3.9040884 0.80886014 4.2562417e-20)
(3.7765699 0.73436248 5.6530806e-20)
(3.5814836 0.65176994 1.2755023e-20)
(3.3098857 0.56177051 8.9763298e-20)
(2.963876 0.46804727 -1.0126835e-19)
(2.559963 0.37683608 0)
(2.1267872 0.29509316 -7.2960475e-20)
(1.6977641 0.22824979 7.2071061e-20)
(1.3023921 0.17875085 0)
(0.96015267 0.14589164 0)
(0.67874023 0.12666935 9.2246224e-20)
(0.45600316 0.11704033 -9.0470497e-20)
(0.28376778 0.11305001 1.7810501e-19)
(0.15168892 0.11154623 0)
(0.049976323 0.11042366 8.6024533e-20)
(-0.029286882 0.10852228 -8.4671704e-20)
(-0.091868313 0.10534701 -8.3296956e-20)
(-0.14168569 0.10086034 8.1877295e-20)
(-0.18134663 0.095215782 -5.8418894e-23)
(-0.21365535 0.089930993 7.936679e-20)
(2.8288805 1.3069254 -8.2818844e-21)
(2.8927629 1.3461139 -5.2265359e-20)
(2.9633107 1.3799997 -4.0357893e-20)
(3.0394975 1.407099 -2.785898e-20)
(3.1200827 1.4264077 -1.7301642e-20)
(3.2039449 1.4372729 1.1172467e-20)
(3.289954 1.4392334 -3.8525384e-21)
(3.3768359 1.4320177 3.9228318e-21)
(3.4631514 1.4156087 2.570506e-20)
(3.5473694 1.3903083 4.503478e-21)
(3.6279774 1.3567744 -1.2636143e-20)
(3.7035924 1.3160146 1.2772962e-20)
(3.7730487 1.2693374 -1.8720452e-21)
(3.8354437 1.2182541 -1.0159359e-20)
(3.8901125 1.1643408 1.9447665e-20)
(3.936488 1.1090619 -5.0217089e-21)
(3.9738009 1.0535718 0)
(4.0005789 0.9985101 0)
(4.0139336 0.94381748 2.3888479e-20)
(4.0086875 0.88861031 0)
(3.9765312 0.83117317 -4.662119e-20)
(3.9056146 0.76916497 -4.8901983e-20)
(3.7813127 0.70018419 -3.5191203e-20)
(3.5891746 0.6228122 -1.1970941e-20)
(3.3203449 0.53788567 -9.4699545e-20)
(2.9775284 0.44920278 0)
(2.5777885 0.36289809 1.313974e-21)
(2.1497083 0.28559338 -9.5936306e-22)
(1.7259691 0.22231266 9.1959249e-20)
(1.3350196 0.17520799 4.5235672e-20)
(0.9953992 0.14349198 -8.9532484e-20)
(0.71425107 0.12430106 4.4400687e-20)
(0.48938713 0.11390562 -4.3638136e-20)
(0.31306802 0.10875486 4.2749928e-20)
(0.17566041 0.10607929 -8.4148306e-20)
(0.068106622 0.10406125 8.2774155e-20)
(-0.016894735 0.10164949 -8.9576056e-23)
(-0.084728398 0.098424193 -1.6034179e-19)
(-0.13912502 0.094114599 7.9050741e-20)
(-0.18532208 0.092127057 -7.7687495e-20)
(2.8238293 1.2430528 0)
(2.8822245 1.2824542 0)
(2.9471036 1.3169641 2.1534258e-20)
(3.0178091 1.3453891 1.84293e-20)
(3.0932618 1.3667541 3.3519933e-20)
(3.1724075 1.3803235 -2.0080903e-20)
(3.2541858 1.3855526 0)
(3.3374123 1.3820973 -6.2928596e-21)
(3.4207388 1.3698561 -4.1275152e-21)
(3.5027092 1.34902 1.6502677e-20)
(3.5818614 1.3201141 -2.7377531e-20)
(3.6568373 1.284003 1.0776952e-20)
(3.7264791 1.2418583 -1.485971e-20)
(3.7899014 1.1950805 6.744388e-21)
(3.8465169 1.1451873 1.6678484e-20)
(3.8959843 1.0936668 4.8997527e-21)
(3.9380363 1.0418109 -1.0148708e-20)
(3.9721449 0.99053731 1.5430288e-20)
(3.9969853 0.94021633 -5.2638539e-21)
(4.0096841 0.89052087 0)
(4.0049078 0.84032986 4.547379e-20)
(3.9739928 0.78774433 0)
(3.9045638 0.73031578 5.7517417e-20)
(3.7814898 0.66565641 7.8245852e-20)
(3.5902271 0.59251942 9.2418326e-20)
(3.322517 0.51199682 2.2900423e-20)
(2.982067 0.42801827 4.6176172e-20)
(2.5866139 0.34655395 -2.3065548e-20)
(2.1645273 0.27379355 -1.7925021e-19)
(1.7474231 0.21426256 -1.326473e-19)
(1.3623239 0.1697596 8.7489628e-20)
(1.0265454 0.13940662 4.3379904e-20)
(0.74659084 0.12050959 -1.2726244e-19)
(0.52031384 0.10969056 -4.1742759e-20)
(0.34054395 0.10379532 1.2320089e-19)
(0.19843349 0.10041713 7.1731596e-23)
(0.085722716 0.09789084 7.9679986e-20)
(-0.0043669959 0.095371532 0)
(-0.076545505 0.091690609 0)
(-0.13917026 0.09328574 0)
(2.8170424 1.1838415 -5.4366259e-20)
(2.8705655 1.2232829 0)
(2.9303757 1.2581936 4.2453307e-20)
(2.9961565 1.2876549 0)
(3.0669682 1.310716 -2.4075825e-20)
(3.1418138 1.3265705 0)
(3.2196998 1.334607 1.2220756e-21)
(3.2995284 1.3344242 2.3717045e-21)
(3.3800384 1.3258488 -3.673283e-21)
(3.4598453 1.3089759 0)
(3.5375366 1.2842126 -2.3221183e-20)
(3.6117771 1.2522937 -2.0297594e-21)
(3.681406 1.2142586 -1.8333497e-21)
(3.7455177 1.1713888 1.3094976e-20)
(3.8035139 1.1251126 -9.7460908e-22)
(3.8551029 1.0768824 0)
(3.9002149 1.0280337 0)
(3.9387978 0.97963616 0)
(3.9704545 0.93234645 -1.2484751e-21)
(3.9938821 0.88627039 1.2458258e-21)
(4.0060953 0.84084436 -4.0354937e-20)
(4.0014946 0.79476495 0)
(3.9709946 0.74602123 -4.1726083e-20)
(3.9017175 0.69214853 -6.5750146e-20)
(3.7782223 0.63088638 6.3753877e-20)
(3.58626 0.56126955 0)
(3.3185935 0.48469704 8.6050516e-20)
(2.980173 0.40520329 0)
(2.5893793 0.32852034 0)
(2.1741396 0.26033494 1.713755e-19)
(1.7647058 0.20462848 -8.4512065e-20)
(1.3864198 0.16283951 8.4004961e-20)
(1.055255 0.13401492 -8.251675e-20)
(0.7770964 0.11566323 0)
(0.54994506 0.10474199 -8.0378126e-20)
(0.36725535 0.098511967 -7.9030692e-20)
(0.22106305 0.094736181 -7.78661e-20)
(0.10364853 0.092249799 -1.2887682e-24)
(0.010159527 0.088303886 9.0900051e-23)
(-0.072241376 0.09363176 0)
(2.808511 1.1287354 -5.0465187e-20)
(2.8577005 1.1680811 5.1876562e-20)
(2.9129721 1.2032136 -4.1672415e-20)
(2.9743229 1.2334742 3.6215538e-20)
(3.0409335 1.2579315 0)
(3.1118563 1.2757173 0)
(3.1861619 1.2861684 -6.2529646e-21)
(3.2628358 1.2888389 0)
(3.3406992 1.2834953 0)
(3.4184362 1.2701486 1.7454409e-20)
(3.4946841 1.2491023 -3.8574248e-21)
(3.5681335 1.2209748 7.4460679e-21)
(3.6376224 1.1866839 -9.8166365e-21)
(3.7022186 1.1473949 0)
(3.7612832 1.1044377 8.6698185e-22)
(3.8144964 1.0592 0)
(3.8618247 1.0130055 0)
(3.9034041 0.96698791 1.6760795e-20)
(3.9393095 0.92196889 0)
(3.9691732 0.87834597 0)
(3.9916084 0.83598628 3.4536479e-20)
(4.0034196 0.79413586 4.8427484e-21)
(3.9986643 0.7513655 3.0655081e-20)
(3.9678008 0.70561741 -6.948587e-20)
(3.8975143 0.65448971 -6.2562715e-20)
(3.7722936 0.59594272 3.900895e-22)
(3.5785596 0.52936266 -1.0469588e-19)
(3.3104136 0.45646206 1.2437402e-19)
(2.9741348 0.38132288 4.8708323e-22)
(2.5885949 0.30936931 -8.3026227e-20)
(2.1810131 0.24573652 8.2951582e-20)
(1.7800308 0.19386029 4.0557807e-20)
(1.4091814 0.15483261 4.0423144e-20)
(1.0830899 0.12767489 -7.4673836e-23)
(0.80712703 0.11006997 -3.9129699e-20)
(0.57946916 0.099406928 1.5474574e-19)
(0.39437847 0.093078292 5.4527473e-23)
(0.24433074 0.08981188 -7.5184413e-20)
(0.12558243 0.084713058 7.3937836e-20)
(0.017713438 0.092766475 1.4591644e-19)
(2.7982459 1.0772643 4.9951954e-23)
(2.8435704 1.1164047 0)
(2.8947744 1.1516155 -1.9573323e-20)
(2.9521372 1.1824819 -5.2602596e-20)
(3.0149415 1.2080847 0)
(3.0822837 1.227502 0)
(3.1532963 1.2400316 1.0942205e-20)
(3.2270442 1.2451942 -4.270336e-21)
(3.3024264 1.2427051 3.0073777e-21)
(3.3781925 1.2325024 -7.5652831e-21)
(3.4530294 1.2147977 -2.2974708e-20)
(3.5256565 1.1901058 6.0756059e-21)
(3.5949158 1.1592339 9.6004788e-21)
(3.6598523 1.1232387 0)
(3.7197824 1.0833522 -4.0365093e-22)
(3.7743325 1.0408874 0)
(3.8234339 0.99712802 -6.6325708e-21)
(3.8672576 0.95321933 -2.810492e-20)
(3.9060718 0.91006449 4.0566425e-21)
(3.9399937 0.86823677 0)
(3.9685983 0.82789658 0)
(3.9903334 0.78871451 -3.5820807e-20)
(4.0017247 0.74979579 -3.6657352e-20)
(3.9964399 0.70963938 5.8396034e-20)
(3.964481 0.66619575 -4.6813002e-22)
(3.8922106 0.61719658 1.9365238e-20)
(3.7643217 0.56089309 0)
(3.5682395 0.49705889 -8.0615865e-20)
(3.2995999 0.42768654 0)
(2.9659562 0.35683795 0)
(2.5864335 0.28955939 7.9167597e-20)
(2.1872686 0.23042497 -3.9796381e-20)
(1.7953285 0.18232405 -3.9111955e-20)
(1.4322916 0.14608642 -7.7353678e-20)
(1.1115599 0.12064926 6.7438636e-23)
(0.83798444 0.10409514 1.5101804e-19)
(0.61034898 0.093704562 0)
(0.42302977 0.088377342 7.3527671e-20)
(0.27344766 0.081644895 -1.4515353e-19)
(0.13433789 0.091180507 0)
(2.7862719 1.0290203 1.5501328e-19)
(2.8281396 1.0678685 -2.6438415e-21)
(2.875694 1.1030455 -4.2984997e-20)
(2.9294645 1.1343602 3.6334016e-20)
(2.9888179 1.1608982 -3.1373841e-20)
(3.0528904 1.1816919 9.9356391e-21)
(3.1208747 1.1960119 7.428636e-21)
(3.1919113 1.2033541 0)
(3.2649718 1.203391 -1.7043518e-21)
(3.3388686 1.1959963 6.4518787e-21)
(3.4123375 1.1813011 3.9813269e-21)
(3.484129 1.1597274 -1.8320688e-21)
(3.5530935 1.1319823 -1.705739e-21)
(3.61826 1.0990222 -1.5562734e-21)
(3.6789048 1.061986 1.0156136e-20)
(3.7345973 1.0221105 2.9348348e-21)
(3.785209 0.98062745 7.0075015e-21)
(3.830877 0.93866653 6.9742326e-21)
(3.8719127 0.89716185 2.9654352e-20)
(3.9086427 0.85678303 2.0410998e-21)
(3.9411529 0.81787215 3.0325818e-20)
(3.9688935 0.78039267 3.5016346e-20)
(3.9900902 0.74386322 7.0169288e-20)
(4.0009482 0.70729932 0)
(3.9947253 0.66917032 0)
(3.9610045 0.62748803 7.2973362e-20)
(3.8859903 0.5801739 0)
(3.754868 0.52582472 7.5002601e-20)
(3.5563365 0.46459525 -7.5704439e-20)
(3.2876349 0.39871122 0)
(2.9574266 0.33212047 -7.751323e-20)
(2.5847916 0.2694682 0)
(2.1947614 0.21471929 0)
(1.8122878 0.17035194 7.5787505e-20)
(1.4573462 0.13679015 7.4534925e-20)
(1.1420016 0.11334719 -7.3976149e-20)
(0.87138872 0.097487452 0)
(0.64331089 0.088924745 7.1981744e-20)
(0.45824122 0.079059058 -7.1056968e-20)
(0.28448067 0.088732582 0)
(2.7726194 0.9836517 0)
(2.8113886 1.02214 -4.696748e-20)
(2.8556657 1.0571967 -4.9386842e-22)
(2.9061987 1.0888314 3.7752657e-20)
(2.9624217 1.1161277 -1.3557583e-21)
(3.0235075 1.1380803 -2.6014003e-20)
(3.0887076 1.1539426 -9.8570073e-21)
(3.1572339 1.1631935 -7.4545154e-21)
(3.228126 1.1654688 0)
(3.3002558 1.1605863 3.8030624e-21)
(3.3724071 1.1486058 -1.2491297e-20)
(3.4433632 1.1298667 3.804664e-21)
(3.5119868 1.104985 -7.2711929e-21)
(3.5772963 1.0748249 3.5033863e-21)
(3.6385352 1.0404379 2.8592654e-22)
(3.6952206 1.0029867 -2.8709932e-21)
(3.7471607 0.96364785 1.1691372e-20)
(3.7944333 0.92352254 -9.3220724e-21)
(3.8373239 0.88354827 -3.3304389e-20)
(3.8762182 0.84444305 2.96467e-20)
(3.9114348 0.80665358 -3.5577578e-20)
(3.9429709 0.77033011 3.9108776e-21)
(3.9701046 0.73527776 -7.4076697e-20)
(3.9908063 0.70091551 -8.8249574e-21)
(4.0009407 0.66620362 1.6948288e-20)
(3.9933606 0.62962796 -1.4038945e-19)
(3.9573095 0.58929721 0)
(3.8790385 0.54338505 -7.3418236e-20)
(3.7445049 0.49084359 1.4636603e-19)
(3.543859 0.43220421 0)
(3.2759064 0.36981462 0)
(2.9501472 0.30749311 0)
(2.5853622 0.24934352 0)
(2.2050802 0.1989417 -1.0995302e-19)
(1.8325335 0.15801225 3.5815805e-20)
(1.4855901 0.12745937 0)
(1.1764163 0.10510038 0)
(0.90728061 0.092356671 -7.0333923e-20)
(0.68488716 0.077882318 -6.9731863e-20)
(0.47121597 0.086998042 6.8765651e-20)
(2.7573219 0.94085535 0)
(2.7933099 0.97893162 4.621041e-20)
(2.8346421 1.0138021 4.1987598e-20)
(2.8822564 1.0456522 -5.436062e-20)
(2.9356386 1.0735572 3.0981093e-20)
(2.9939957 1.0964825 2.2287614e-20)
(3.0566369 1.1136733 9.238213e-21)
(3.1228412 1.1245971 0)
(3.1917115 1.1288585 -1.4138252e-21)
(3.2621758 1.1262268 3.5718741e-21)
(3.3330653 1.1166988 2.6148425e-21)
(3.4031967 1.1005399 0)
(3.4714481 1.0782835 -6.1970513e-21)
(3.5368322 1.0507092 9.9861857e-21)
(3.5985661 1.0187862 -2.8437761e-23)
(3.6561214 0.9836075 2.3432723e-21)
(3.7092472 0.94629336 -6.6313327e-21)
(3.7579572 0.90791205 1.8203142e-20)
(3.802484 0.86939015 2.4988109e-20)
(3.8432004 0.83146789 -2.6374011e-20)
(3.8805043 0.79464872 -2.9637624e-20)
(3.9146554 0.75919696 -7.5917262e-21)
(3.9455207 0.72510076 -2.1193111e-20)
(3.9721804 0.69206399 0)
(3.9923333 0.65943097 -1.6491555e-20)
(4.0015023 0.62615785 1.0069849e-19)
(3.9921669 0.5907588 -1.6655532e-20)
(3.9533525 0.55150854 -3.4884835e-20)
(3.8715916 0.50683351 -3.6328699e-20)
(3.7338436 0.45609638 3.5694836e-20)
(3.5318192 0.40007194 -1.0555847e-19)
(3.2656941 0.3412777 -3.6005471e-20)
(2.9456097 0.28311111 3.5485071e-20)
(2.5895447 0.22952689 1.4250444e-19)
(2.2198564 0.18296974 -6.4366533e-22)
(1.8570446 0.14604061 0)
(1.5194548 0.11678363 -6.9399832e-20)
(1.213493 0.099287414 6.8997757e-20)
(0.9553846 0.079011126 0)
(0.69699692 0.086004844 6.7137062e-20)
(2.7404154 0.90036955 -9.8282721e-20)
(2.7739047 0.93799425 -4.544117e-20)
(2.8125906 0.97262861 0)
(2.8575728 1.0046086 -1.7374261e-20)
(2.9083762 1.0329955 9.7644684e-20)
(2.9642403 1.0567336 1.2735122e-20)
(3.0245308 1.0750676 -2.0552011e-20)
(3.0885893 1.0874585 -8.0713743e-21)
(3.1555774 1.0934842 0)
(3.2244763 1.0928717 0)
(3.2941633 1.0855621 -2.0168441e-21)
(3.3634889 1.0717552 -1.6209354e-21)
(3.4313488 1.0519086 3.6897121e-21)
(3.4967541 1.0267244 -6.7154662e-21)
(3.5589011 0.99709499 6.5070804e-21)
(3.6172226 0.9640472 -2.2943532e-21)
(3.6714145 0.92864617 -5.1232381e-21)
(3.7214295 0.89192612 5.3362067e-21)
(3.7674403 0.85479522 -2.4459701e-20)
(3.8097774 0.81800302 0)
(3.8488422 0.78208166 2.389724e-20)
(3.884997 0.74736562 3.3876015e-21)
(3.9184044 0.71395243 5.892435e-20)
(3.9487806 0.68173592 -1.514877e-20)
(3.9749941 0.65032684 1.5011106e-20)
(3.9944737 0.61906393 6.1575878e-20)
(4.0024132 0.58688031 0)
(3.99098 0.55240889 0)
(3.9491498 0.51404653 9.9199598e-20)
(3.8639492 0.47060888 -9.9763199e-20)