/*--------------------------------*- C++ -*----------------------------------*\
| =========                 |                                                 |
| \\      /  F ield         | OpenFOAM: The Open Source CFD Toolbox           |
|  \\    /   O peration     | Version:  2.1.x                                 |
|   \\  /    A nd           | Web:      www.OpenFOAM.org                      |
|    \\/     M anipulation  |                                                 |
\*---------------------------------------------------------------------------*/
FoamFile
{
    version     2.0;
    format      ascii;
    class       volScalarField;
    location    "3500";
    object      approx2o_Gw;
}
// * * * * * * * * * * * * * * * * * * * * * * * * * * * * * * * * * * * * * //

dimensions      [0 2 -3 0 0 0 0];

internalField   uniform 0;

boundaryField
{
    inlet
    {
        type            calculated;
        value           uniform 0;
    }
    outlet
    {
        type            calculated;
        value           uniform 0;
    }
    top_left
    {
        type            calculated;
        value           nonuniform List<scalar> 
250
(
4.488558143
5.536609447
6.750035983
8.16655016
9.765912647
10.36378822
10.76493927
10.83678108
10.88767815
10.85422713
10.8369177
10.81267346
10.81221394
10.81267346
10.8369177
10.85422713
10.88767815
10.83678108
10.76493927
10.36378822
9.765912647
8.16655016
6.750035983
5.536609447
4.488558143
-3.73437372
-4.11418492
-3.485428897
-3.259181374
-2.914700377
-2.831310181
-2.724665046
-2.710036948
-2.68937139
-2.698925813
-2.702497426
-2.711356523
-2.711687196
-2.711356523
-2.702497426
-2.698925813
-2.68937139
-2.710036948
-2.724665046
-2.831310181
-2.914700377
-3.259181374
-3.485428897
-4.11418492
-3.73437372
0.6437784322
-0.2605983096
-0.4009866884
-0.5475348666
-0.3613184514
-0.2770393016
-0.1448060991
-0.06972409054
0.01587085941
0.07831878371
0.1362590286
0.1718167615
0.1867852108
0.1718167615
0.1362590286
0.07831878371
0.01587085941
-0.06972409054
-0.1448060991
-0.2770393016
-0.3613184514
-0.5475348666
-0.4009866884
-0.2605983096
0.6437784322
-0.160590734
-0.6632499433
-0.7944651498
-0.8676594322
-0.796331027
-0.7566288074
-0.689758065
-0.6473094488
-0.6022821276
-0.5700528974
-0.5420498577
-0.5253259367
-0.5185124617
-0.5253259367
-0.5420498577
-0.5700528974
-0.6022821276
-0.6473094488
-0.689758065
-0.7566288074
-0.796331027
-0.8676594322
-0.7944651498
-0.6632499433
-0.160590734
0.06411775263
-0.3704812023
-0.5707386733
-0.7100690136
-0.6956007444
-0.6778509126
-0.626832461
-0.5851544594
-0.5383859784
-0.4998836414
-0.4664481089
-0.4451847801
-0.4370270591
-0.4451847801
-0.4664481089
-0.4998836414
-0.5383859784
-0.5851544594
-0.626832461
-0.6778509126
-0.6956007444
-0.7100690136
-0.5707386733
-0.3704812023
0.06411775263
-0.01801945735
-0.347006476
-0.5448100061
-0.6611019399
-0.6704096361
-0.6621457845
-0.6293711519
-0.5980745463
-0.56314601
-0.5329493253
-0.5070339946
-0.4902113002
-0.4839175854
-0.4902113002
-0.5070339946
-0.5329493253
-0.56314601
-0.5980745463
-0.6293711519
-0.6621457845
-0.6704096361
-0.6611019399
-0.5448100061
-0.347006476
-0.01801945735
-0.00398178803
-0.2831814727
-0.4917867998
-0.6201404703
-0.650777899
-0.6520901374
-0.6293899374
-0.6023520726
-0.5709840685
-0.5419493107
-0.5168012518
-0.5000337833
-0.4938525303
-0.5000337833
-0.5168012518
-0.5419493107
-0.5709840685
-0.6023520726
-0.6293899374
-0.6520901374
-0.650777899
-0.6201404703
-0.4917867998
-0.2831814727
-0.003981788029
-0.01816150986
-0.256806351
-0.4632181545
-0.5860845281
-0.6267954921
-0.632299086
-0.6169829386
-0.5943460923
-0.5676801413
-0.5417334546
-0.5191090839
-0.503713258
-0.4980757988
-0.503713258
-0.5191090839
-0.5417334546
-0.5676801413
-0.5943460923
-0.6169829386
-0.632299086
-0.6267954921
-0.5860845281
-0.4632181545
-0.256806351
-0.01816150986
-0.02034480042
-0.2335791589
-0.4393925709
-0.5643803139
-0.6140265426
-0.6236418799
-0.6129080134
-0.5925004919
-0.5677984935
-0.5427442642
-0.5206728397
-0.5054091701
-0.4998194414
-0.5054091701
-0.5206728397
-0.5427442642
-0.5677984935
-0.5925004919
-0.6129080134
-0.6236418799
-0.6140265426
-0.5643803139
-0.4393925709
-0.2335791589
-0.02034480042
-0.02491449157
-0.2195142532
-0.4215042424
-0.5449521151
-0.5991682269
-0.6105820154
-0.6021227678
-0.582674043
-0.558847841
-0.5341176268
-0.5121639606
-0.4968294276
-0.4911835472
-0.4968294276
-0.5121639606
-0.5341176268
-0.558847841
-0.582674043
-0.6021227678
-0.6105820154
-0.5991682269
-0.5449521151
-0.4215042424
-0.2195142532
-0.02491449157
)
;
    }
    top_center
    {
        type            calculated;
        value           nonuniform List<scalar> 
750
(
-0.0277013953
-0.2098068814
-0.4080424245
-0.531061108
-0.5881838589
-0.6004658132
-0.5922549441
-0.5720637924
-0.5471633478
-0.5212007513
-0.4980756158
-0.4818745988
-0.4758681779
-0.4818745988
-0.4980756158
-0.5212007513
-0.5471633478
-0.5720637924
-0.5922549441
-0.6004658132
-0.5881838589
-0.531061108
-0.4080424245
-0.2098068814
-0.0277013953
-0.03062814066
-0.2041057083
-0.3978339021
-0.5190635678
-0.576577668
-0.5879757923
-0.5777977705
-0.5549720759
-0.5269813536
-0.4981529751
-0.472565513
-0.4547477769
-0.4481241146
-0.4547477769
-0.472565513
-0.4981529751
-0.5269813536
-0.5549720759
-0.5777977705
-0.5879757923
-0.576577668
-0.5190635678
-0.3978339021
-0.2041057083
-0.03062814066
-0.03344062517
-0.2015426164
-0.3908976632
-0.509878521
-0.5659586198
-0.5748849782
-0.5602714259
-0.5322230697
-0.4983192784
-0.4642770403
-0.4345763468
-0.4143007987
-0.4068185381
-0.4143007987
-0.4345763468
-0.4642770403
-0.4983192784
-0.5322230697
-0.5602714259
-0.5748849782
-0.5659586198
-0.509878521
-0.3908976632
-0.2015426164
-0.03344062517
-0.03640980374
-0.2016926466
-0.3868638411
-0.5027968544
-0.5554263589
-0.5597334965
-0.5376051899
-0.5008618513
-0.45712912
-0.4142738616
-0.3778498244
-0.3537885787
-0.3451091913
-0.3537885787
-0.3778498244
-0.4142738616
-0.45712912
-0.5008618513
-0.5376051899
-0.5597334965
-0.5554263589
-0.5027968544
-0.3868638411
-0.2016926466
-0.03640980374
-0.03960782136
-0.204394744
-0.3860608793
-0.4985713841
-0.5459524316
-0.5430757677
-0.5090662306
-0.4574352646
-0.3964514174
-0.3381271921
-0.2911392311
-0.2623547705
-0.2526110522
-0.2623547705
-0.2911392311
-0.3381271921
-0.3964514174
-0.4574352646
-0.5090662306
-0.5430757676
-0.5459524316
-0.4985713841
-0.3860608793
-0.204394744
-0.03960782136
-0.04318065192
-0.2096933763
-0.3888367305
-0.4978408612
-0.5381584019
-0.5243971785
-0.4713903076
-0.3942292785
-0.3098548503
-0.2434095494
-0.2002688723
-0.1780650666
-0.1714398915
-0.1780650666
-0.2002688723
-0.2434095494
-0.3098548503
-0.3942292785
-0.4713903076
-0.5243971785
-0.5381584019
-0.4978408612
-0.3888367305
-0.2096933763
-0.04318065192
-0.04731882857
-0.2179150554
-0.3960191104
-0.5020724822
-0.5338538453
-0.5043034928
-0.424186419
-0.3309275299
-0.2502586908
-0.1951423602
-0.1638533688
-0.1504210068
-0.1471908601
-0.1504210068
-0.1638533688
-0.1951423602
-0.2502586908
-0.3309275299
-0.424186419
-0.5043034928
-0.5338538453
-0.5020724822
-0.3960191104
-0.2179150554
-0.04731882857
-0.05224490337
-0.2295458661
-0.4087019428
-0.5132596884
-0.5349286556
-0.4874022717
-0.4009506457
-0.3223783339
-0.2593508318
-0.2136007446
-0.1849029173
-0.172296865
-0.1695249039
-0.172296865
-0.1849029173
-0.2136007446
-0.2593508318
-0.3223783339
-0.4009506457
-0.4874022717
-0.5349286556
-0.5132596884
-0.4087019428
-0.2295458661
-0.05224490337
-0.0581633752
-0.245043445
-0.4277224398
-0.5322769593
-0.5436318031
-0.4991812735
-0.4418762041
-0.3884558258
-0.3324557945
-0.2836703028
-0.2491268013
-0.2321175956
-0.2280498255
-0.2321175956
-0.2491268013
-0.2836703028
-0.3324557945
-0.3884558258
-0.4418762041
-0.4991812735
-0.5436318031
-0.5322769593
-0.4277224398
-0.245043445
-0.0581633752
-0.06512672345
-0.2643616831
-0.4526836122
-0.5548286751
-0.5729759508
-0.5672335826
-0.5529991088
-0.522439948
-0.4737956647
-0.4213467933
-0.3785252413
-0.3546107392
-0.3479778232
-0.3546107392
-0.3785252413
-0.4213467933
-0.4737956647
-0.522439948
-0.5529991088
-0.5672335826
-0.5729759508
-0.5548286751
-0.4526836122
-0.2643616831
-0.06512672345
-0.07294260482
-0.2865779398
-0.4807461401
-0.5854804645
-0.6358591954
-0.6891548022
-0.7263118457
-0.7372191612
-0.7175257873
-0.6793371076
-0.6394469447
-0.6135674588
-0.6044486729
-0.6135674588
-0.6394469447
-0.6793371076
-0.7175257873
-0.7372191612
-0.7263118457
-0.6891548022
-0.6358591954
-0.5854804645
-0.4807461401
-0.2865779398
-0.07294260482
-0.08099525536
-0.3090937356
-0.5043833767
-0.6262597113
-0.7244928696
-0.846185851
-0.959136822
-1.046925263
-1.097613649
-1.117480682
-1.121969446
-1.122110167
-1.116630973
-1.122110167
-1.121969446
-1.117480682
-1.097613649
-1.046925263
-0.959136822
-0.846185851
-0.7244928696
-0.6262597113
-0.5043833767
-0.3090937356
-0.08099525536
-0.08831309302
-0.32863302
-0.5220353343
-0.6630636346
-0.8173332379
-1.011512901
-1.221089403
-1.424971718
-1.602562128
-1.746794964
-1.856156929
-1.910494876
-1.895528037
-1.910494876
-1.856156929
-1.746794964
-1.602562128
-1.424971718
-1.221089403
-1.011512901
-0.8173332379
-0.6630636346
-0.5220353343
-0.32863302
-0.08831309302
-0.09339792592
-0.3413613052
-0.5329770083
-0.6872179468
-0.8827255088
-1.138626287
-1.442876977
-1.776069495
-2.110822339
-2.416004702
-2.655021102
-2.785528237
-2.78606649
-2.785528236
-2.655021102
-2.416004702
-2.110822339
-1.776069495
-1.442876977
-1.138626287
-0.8827255088
-0.6872179468
-0.5329770083
-0.3413613052
-0.09339792592
-0.09442824039
-0.3438861477
-0.5309712177
-0.6864479242
-0.8973814022
-1.18432932
-1.547364673
-1.973923626
-2.433332189
-2.864764499
-3.204714185
-3.486911527
-3.829041407
-3.486911527
-3.204714185
-2.864764499
-2.433332189
-1.973923626
-1.547364673
-1.18432932
-0.8973814022
-0.6864479242
-0.5309712177
-0.3438861477
-0.09442824039
-0.09099373602
-0.3348327643
-0.5128173357
-0.6550187886
-0.8526193127
-1.127097621
-1.484371262
-1.916374482
-2.393035325
-2.846315649
-3.197338768
-3.476873777
-3.808950329
-3.476873777
-3.197338768
-2.846315649
-2.393035325
-1.916374482
-1.484371262
-1.127097621
-0.8526193127
-0.6550187886
-0.5128173357
-0.3348327643
-0.09099373602
-0.08404888948
-0.3162274117
-0.481993648
-0.599123916
-0.758965186
-0.9819742205
-1.272091017
-1.620510977
-2.000925195
-2.364699105
-2.641555914
-2.783136552
-2.78795865
-2.783136552
-2.641555914
-2.364699105
-2.000925195
-1.620510977
-1.272091017
-0.9819742205
-0.758965186
-0.599123916
-0.481993648
-0.3162274117
-0.08404888948
-0.07510610369
-0.2914888228
-0.446350441
-0.5345316337
-0.6416013814
-0.7933809517
-0.9867918406
-1.21048704
-1.443566178
-1.659189023
-1.825602552
-1.911618219
-1.911457965
-1.911618219
-1.825602552
-1.659189023
-1.443566178
-1.21048704
-0.9867918406
-0.7933809517
-0.6416013814
-0.5345316337
-0.446350441
-0.2914888228
-0.07510610369
-0.06577895792
-0.2643159794
-0.4131182734
-0.477079727
-0.5282413468
-0.609961636
-0.7130444541
-0.8253377484
-0.9323012445
-1.020274264
-1.081817128
-1.116072039
-1.123415055
-1.116072039
-1.081817128
-1.020274264
-0.9323012445
-0.8253377484
-0.7130444541
-0.609961636
-0.5282413468
-0.477079727
-0.4131182734
-0.2643159794
-0.06577895792
-0.05728204607
-0.2381509399
-0.3826678002
-0.4349778387
-0.4416779452
-0.4640862287
-0.5009715364
-0.5394612863
-0.5708476188
-0.5887674253
-0.593318989
-0.5919067775
-0.5898508029
-0.5919067775
-0.593318989
-0.5887674253
-0.5708476188
-0.5394612863
-0.5009715364
-0.4640862287
-0.4416779452
-0.4349778387
-0.3826678002
-0.2381509399
-0.05728204607
-0.05033881614
-0.2156463755
-0.3553440635
-0.4142299264
-0.3969729613
-0.3700609792
-0.3625980608
-0.3600037467
-0.3559164419
-0.3467614162
-0.3337318472
-0.3225307211
-0.3181551552
-0.3225307211
-0.3337318472
-0.3467614162
-0.3559164419
-0.3600037467
-0.3625980608
-0.3700609792
-0.3969729613
-0.4142299264
-0.3553440635
-0.2156463755
-0.05033881614
-0.04514057289
-0.1978469861
-0.3339156248
-0.4063066345
-0.3945187185
-0.3358500887
-0.2909239984
-0.2637314418
-0.2435921756
-0.2257223384
-0.2097861081
-0.1984748185
-0.1943358999
-0.1984748185
-0.2097861081
-0.2257223384
-0.2435921756
-0.2637314418
-0.2909239984
-0.3358500887
-0.3945187185
-0.4063066345
-0.3339156248
-0.1978469861
-0.04514057289
-0.04150541321
-0.1844734694
-0.3182077898
-0.3996594841
-0.4124695697
-0.3579249348
-0.2841821516
-0.2302079193
-0.1966985269
-0.173760843
-0.1570844127
-0.1465009037
-0.1428415966
-0.1465009037
-0.1570844127
-0.173760843
-0.1966985269
-0.2302079193
-0.2841821516
-0.3579249348
-0.4124695697
-0.3996594841
-0.3182077898
-0.1844734694
-0.04150541321
-0.03913026367
-0.1748173481
-0.3071351475
-0.3958657318
-0.4283306653
-0.403382292
-0.3351673154
-0.2602700307
-0.2044921656
-0.1681782939
-0.1462059257
-0.1340810428
-0.1301686496
-0.1340810428
-0.1462059257
-0.1681782939
-0.2044921656
-0.2602700307
-0.3351673154
-0.403382292
-0.4283306653
-0.3958657318
-0.3071351475
-0.1748173481
-0.03913026367
-0.03769553127
-0.1679983236
-0.2993505026
-0.3939689102
-0.439813623
-0.4382715442
-0.3998621433
-0.3367432745
-0.2701910578
-0.2184357545
-0.1846397569
-0.1655418876
-0.1593629771
-0.1655418876
-0.1846397569
-0.2184357545
-0.2701910578
-0.3367432745
-0.3998621433
-0.4382715442
-0.439813623
-0.3939689102
-0.2993505026
-0.1679983236
-0.03769553127
-0.03692607416
-0.163272806
-0.293770928
-0.3930267795
-0.4486755741
-0.4623119411
-0.4436725428
-0.4046586261
-0.3566056408
-0.3092162142
-0.2708684674
-0.246671404
-0.238467663
-0.246671404
-0.2708684674
-0.3092162142
-0.3566056408
-0.4046586261
-0.4436725428
-0.4623119411
-0.4486755741
-0.3930267795
-0.293770928
-0.163272806
-0.03692607416
-0.03660401679
-0.1601297323
-0.2897061895
-0.3924610994
-0.455437413
-0.4798554503
-0.473975386
-0.4490960883
-0.4152082928
-0.3808198712
-0.3521234671
-0.3334197594
-0.3269278867
-0.3334197594
-0.3521234671
-0.3808198712
-0.4152082928
-0.4490960883
-0.473975386
-0.4798554503
-0.455437413
-0.3924610994
-0.2897061895
-0.1601297323
-0.03660401679
-0.0365493033
-0.1580847597
-0.2866184086
-0.3919300921
-0.4603187962
-0.492796575
-0.4960400471
-0.4809387869
-0.4563164184
-0.4300569997
-0.4075076955
-0.3925931211
-0.3873552322
-0.3925931211
-0.4075076955
-0.4300569997
-0.4563164184
-0.4809387869
-0.4960400471
-0.492796575
-0.4603187962
-0.3919300921
-0.2866184086
-0.1580847597
-0.0365493033
-0.0366349747
-0.1567549319
-0.2842094541
-0.3913132635
-0.4636124916
-0.5021012262
-0.5120269554
-0.5040880151
-0.4862177924
-0.4659115384
-0.4479141953
-0.4358606363
-0.4315857482
-0.4358606363
-0.4479141953
-0.4659115384
-0.4862177924
-0.5040880151
-0.5120269554
-0.5021012262
-0.4636124916
-0.3913132635
-0.2842094541
-0.1567549319
-0.0366349747
-0.0367571232
-0.1558083612
-0.2821140887
-0.3905144793
-0.4656149513
-0.5085782275
-0.5234481874
-0.5208232959
-0.50798465
-0.4921714614
-0.4776834132
-0.4678874169
-0.4643853013
-0.4678874169
-0.4776834132
-0.4921714614
-0.50798465
-0.5208232959
-0.5234481874
-0.5085782275
-0.4656149513
-0.3905144793
-0.2821140887
-0.1558083612
-0.0367571232
)
;
    }
    top_right
    {
        type            calculated;
        value           nonuniform List<scalar> 
250
(
-0.03684732551
-0.1550571267
-0.280188497
-0.3895849908
-0.4667135371
-0.512966412
-0.5314344767
-0.5326669912
-0.523482385
-0.5109531552
-0.4990566362
-0.490933302
-0.4880088865
-0.490933302
-0.4990566362
-0.5109531552
-0.523482385
-0.5326669912
-0.5314344767
-0.512966412
-0.4667135371
-0.3895849908
-0.280188497
-0.1550571267
-0.03684732551
-0.03682795989
-0.1542578542
-0.2781731859
-0.3884420591
-0.4671163875
-0.5158628744
-0.5370709767
-0.5412196837
-0.5347970612
-0.5247333213
-0.5147976755
-0.5079366875
-0.5054527099
-0.5079366875
-0.5147976755
-0.5247333213
-0.5347970612
-0.5412196837
-0.5370709767
-0.5158628744
-0.4671163875
-0.3884420591
-0.2781731859
-0.1542578542
-0.03682795989
-0.03664245393
-0.1533269709
-0.2760914146
-0.3872940945
-0.4672179645
-0.5178523354
-0.5410426112
-0.547247051
-0.542785874
-0.5344579451
-0.5259159343
-0.5199554416
-0.5177888439
-0.5199554416
-0.5259159343
-0.5344579451
-0.542785874
-0.547247051
-0.5410426112
-0.5178523354
-0.4672179645
-0.3872940945
-0.2760914146
-0.1533269709
-0.03664245393
-0.03617769491
-0.1519849709
-0.2736912764
-0.3860223312
-0.4671645515
-0.5194494683
-0.5443415634
-0.5522702434
-0.5494593443
-0.5425559969
-0.5351568137
-0.5299164372
-0.5280077061
-0.5299164372
-0.5351568137
-0.5425559969
-0.5494593443
-0.5522702434
-0.5443415634
-0.5194494683
-0.4671645515
-0.3860223312
-0.2736912764
-0.1519849709
-0.03617769491
-0.03530012144
-0.1501423264
-0.2711802282
-0.3850070922
-0.467457622
-0.5211177619
-0.5473352647
-0.5564874855
-0.5548893132
-0.549016177
-0.5424753695
-0.5377831117
-0.5360717737
-0.5377831117
-0.5424753695
-0.549016177
-0.5548893132
-0.5564874855
-0.5473352647
-0.5211177619
-0.467457622
-0.3850070922
-0.2711802282
-0.1501423264
-0.03530012144
-0.03379196568
-0.1473256609
-0.2682542835
-0.3839514166
-0.4681462066
-0.5233571356
-0.5512681261
-0.5619775672
-0.5619421171
-0.5573949978
-0.5519330249
-0.5479280506
-0.5464644374
-0.5479280506
-0.5519330249
-0.5573949978
-0.5619421171
-0.5619775672
-0.5512681261
-0.5233571356
-0.4681462066
-0.3839514166
-0.2682542835
-0.1473256609
-0.03379196568
-0.03101643733
-0.1428655024
-0.2651306632
-0.3833285942
-0.4699084377
-0.5268172971
-0.5566472853
-0.5690572277
-0.5707785247
-0.5677569327
-0.5635553187
-0.5603618233
-0.5591882914
-0.5603618233
-0.5635553187
-0.5677569327
-0.5707785247
-0.5690572277
-0.5566472853
-0.5268172971
-0.4699084377
-0.3833285942
-0.2651306632
-0.1428655024
-0.03101643733
-0.02669986672
-0.1355391214
-0.2606060029
-0.3813397555
-0.4712317499
-0.5308782694
-0.5642720027
-0.5802134518
-0.5855142205
-0.585652725
-0.5839936298
-0.5824397466
-0.5818403905
-0.5824397466
-0.5839936298
-0.585652725
-0.5855142205
-0.5802134518
-0.5642720027
-0.5308782694
-0.4712317499
-0.3813397555
-0.2606060029
-0.1355391214
-0.02669986672
-0.01504587605
-0.116549054
-0.2517528084
-0.3794510993
-0.4784571057
-0.5466574899
-0.5898939714
-0.6156922244
-0.6304892227
-0.6388545984
-0.6435626302
-0.6460173409
-0.6467898449
-0.6460173409
-0.6435626302
-0.6388545984
-0.6304892227
-0.6156922244
-0.5898939714
-0.5466574899
-0.4784571057
-0.3794510993
-0.2517528084
-0.116549054
-0.01504587605
-0.002210109856
-0.08900228721
-0.2298300841
-0.3583868143
-0.4626988458
-0.5388168866
-0.5933245219
-0.6319330838
-0.659750724
-0.6799012019
-0.6939840786
-0.7024677355
-0.705320064
-0.7024677355
-0.6939840786
-0.6799012019
-0.659750724
-0.6319330838
-0.5933245219
-0.5388168866
-0.4626988458
-0.3583868143
-0.2298300841
-0.08900228721
-0.002210109856
)
;
    }
    down
    {
        type            calculated;
        value           nonuniform List<scalar> 
1250
(
4.523663803
5.599661152
6.807281284
8.253450215
9.916833323
10.60726396
11.11660071
11.30135167
11.45428364
11.49929308
11.53004887
11.52712262
11.53165506
11.52712262
11.53004887
11.49929308
11.45428364
11.30135167
11.11660071
10.60726396
9.916833323
8.253450215
6.807281284
5.599661152
4.523663803
-3.727676383
-4.103591673
-3.47955564
-3.250527374
-2.893567328
-2.788395966
-2.655076587
-2.612400745
-2.56616759
-2.555108919
-2.544534414
-2.545625421
-2.543588467
-2.545625421
-2.544534414
-2.555108919
-2.56616759
-2.612400745
-2.655076587
-2.788395966
-2.893567328
-3.250527374
-3.47955564
-4.103591673
-3.727676383
0.6562701501
-0.2434198487
-0.3856862631
-0.5267906028
-0.330499726
-0.235658351
-0.09730317656
-0.02310862934
0.05270216876
0.09763130451
0.134361477
0.1521586543
0.1600588239
0.1521586543
0.134361477
0.09763130451
0.05270216876
-0.02310862934
-0.09730317656
-0.235658351
-0.330499726
-0.5267906028
-0.3856862631
-0.2434198487
0.6562701501
-0.1527564438
-0.6502490151
-0.7820652939
-0.8530646912
-0.776639021
-0.7306021194
-0.6586301074
-0.6135624704
-0.5695608184
-0.5416357279
-0.519885507
-0.508729941
-0.5041968093
-0.508729941
-0.519885507
-0.5416357279
-0.5695608184
-0.6135624704
-0.6586301074
-0.7306021194
-0.776639021
-0.8530646912
-0.7820652939
-0.6502490151
-0.1527564438
0.07205058404
-0.3573987984
-0.5580304174
-0.6957247684
-0.6776990511
-0.6563043461
-0.603894856
-0.5640801113
-0.5231934481
-0.49368229
-0.4704355641
-0.4573457098
-0.4523847733
-0.4573457098
-0.4704355641
-0.49368229
-0.5231934481
-0.5640801113
-0.603894856
-0.6563043461
-0.6776990511
-0.6957247684
-0.5580304174
-0.3573987984
0.07205058404
-0.01094387113
-0.3343961383
-0.5323866207
-0.6471452151
-0.6534896508
-0.6418781314
-0.6074017389
-0.5766659896
-0.5453659747
-0.5211607322
-0.5023265965
-0.4912613052
-0.4872489614
-0.4912613052
-0.5023265965
-0.5211607322
-0.5453659747
-0.5766659896
-0.6074017389
-0.6418781314
-0.6534896508
-0.6471452151
-0.5323866207
-0.3343961383
-0.01094387113
0.002655345265
-0.2713710023
-0.4805117308
-0.6074760688
-0.6357230116
-0.6344727098
-0.6110836893
-0.5856077258
-0.5588297525
-0.536565533
-0.5191098266
-0.5084521519
-0.5046755618
-0.5084521519
-0.5191098266
-0.536565533
-0.5588297525
-0.5856077258
-0.6110836893
-0.6344727098
-0.6357230116
-0.6074760688
-0.4805117308
-0.2713710023
0.002655345265
-0.01219550448
-0.2462138473
-0.4536623044
-0.5750988298
-0.6137204572
-0.6169107963
-0.6012159361
-0.5802330016
-0.5581097319
-0.5386908049
-0.523492478
-0.5139615483
-0.5106494715
-0.5139615483
-0.523492478
-0.5386908049
-0.5581097319
-0.5802330016
-0.6012159361
-0.6169107963
-0.6137204572
-0.5750988298
-0.4536623044
-0.2462138473
-0.01219550448
-0.01511863062
-0.2248329443
-0.4326339
-0.5565314631
-0.6047527633
-0.6127966205
-0.6027068836
-0.5849563344
-0.5658500959
-0.548228793
-0.5343799461
-0.5255087118
-0.5224578434
-0.5255087118
-0.5343799461
-0.548228793
-0.5658500959
-0.5849563344
-0.6027068836
-0.6127966205
-0.6047527633
-0.5565314631
-0.4326339
-0.2248329443
-0.01511863062
-0.02058593366
-0.2131423584
-0.4183883757
-0.5414033542
-0.595218636
-0.6061493343
-0.5997798983
-0.5843958366
-0.5676423543
-0.5516133119
-0.539004126
-0.5308107842
-0.5280126928
-0.5308107842
-0.539004126
-0.5516133119
-0.5676423543
-0.5843958366
-0.5997798983
-0.6061493343
-0.595218636
-0.5414033542
-0.4183883757
-0.2131423584
-0.02058593366
-0.02441055957
-0.2064091703
-0.4096345584
-0.5335366802
-0.5921261199
-0.6059164967
-0.6023203141
-0.5887009561
-0.5735264837
-0.5585859042
-0.5467904463
-0.5390557573
-0.5364174892
-0.5390557573
-0.5467904463
-0.5585859042
-0.5735264837
-0.5887009561
-0.6023203141
-0.6059164967
-0.5921261199
-0.5335366802
-0.4096345584
-0.2064091703
-0.02441055957
-0.02851196437
-0.2041842178
-0.4051391483
-0.5293147072
-0.5911765881
-0.6071799555
-0.6055045153
-0.593182019
-0.5791056418
-0.5649931691
-0.5538054004
-0.5464400026
-0.543923099
-0.5464400026
-0.5538054004
-0.5649931691
-0.5791056418
-0.593182019
-0.6055045153
-0.6071799555
-0.5911765881
-0.5293147072
-0.4051391483
-0.2041842178
-0.02851196437
-0.03264240768
-0.2056079173
-0.4049720167
-0.5298681363
-0.5945177481
-0.612726337
-0.6126168644
-0.6014026852
-0.5881161817
-0.5746367236
-0.5638779441
-0.5567923886
-0.5543569656
-0.5567923886
-0.5638779441
-0.5746367236
-0.5881161817
-0.6014026852
-0.6126168644
-0.612726337
-0.5945177481
-0.5298681363
-0.4049720167
-0.2056079173
-0.03264240768
-0.03714766323
-0.2101670299
-0.408534773
-0.534215633
-0.6011877356
-0.6215860776
-0.6228810923
-0.6127728509
-0.6002005033
-0.5873453339
-0.5769870463
-0.5701777759
-0.5678181307
-0.5701777759
-0.5769870463
-0.5873453339
-0.6002005033
-0.6127728509
-0.6228810923
-0.6215860776
-0.6011877356
-0.534215633
-0.408534773
-0.2101670299
-0.03714766323
-0.04212041151
-0.2176262734
-0.4157879197
-0.5426460683
-0.6119561717
-0.6348852099
-0.6377883874
-0.6290710572
-0.6173976949
-0.6053601336
-0.5955384515
-0.5890866921
-0.5868307711
-0.5890866921
-0.5955384515
-0.6053601336
-0.6173976949
-0.6290710572
-0.6377883874
-0.6348852099
-0.6119561717
-0.5426460683
-0.4157879197
-0.2176262734
-0.04212041151
-0.04762625649
-0.2276575923
-0.4263627388
-0.5548734692
-0.6267127422
-0.6527118838
-0.6577077811
-0.6509819507
-0.6407426676
-0.6299335629
-0.6209155257
-0.6149871547
-0.6128881503
-0.6149871547
-0.6209155257
-0.6299335629
-0.6407426676
-0.6509819507
-0.6577077811
-0.6527118838
-0.6267127422
-0.5548734692
-0.4263627388
-0.2276575923
-0.04762625649
-0.05366404019
-0.2399958452
-0.4399417882
-0.5707770985
-0.645623281
-0.6755081742
-0.683446171
-0.6796552661
-0.6715575687
-0.662511579
-0.654663399
-0.6494753988
-0.6476027165
-0.6494753988
-0.654663399
-0.662511579
-0.6715575687
-0.6796552661
-0.683446171
-0.6755081742
-0.645623281
-0.5707770985
-0.4399417882
-0.2399958452
-0.05366404019
-0.06014226173
-0.2542123607
-0.4559422626
-0.5898660584
-0.6683680853
-0.7031490287
-0.7151895603
-0.7154132727
-0.7103479535
-0.7038319241
-0.6977593123
-0.6936929196
-0.6921819498
-0.6936929196
-0.6977593123
-0.7038319241
-0.7103479535
-0.7154132727
-0.7151895603
-0.7031490287
-0.6683680853
-0.5898660584
-0.4559422626
-0.2542123607
-0.06014226173
-0.06687367727
-0.2697416962
-0.4735869944
-0.6113922558
-0.6943147347
-0.735146772
-0.7525926808
-0.7580496109
-0.7572334908
-0.7543337833
-0.7509031214
-0.7485099268
-0.7475497698
-0.7485099268
-0.7509031214
-0.7543337833
-0.7572334908
-0.7580496109
-0.7525926808
-0.735146772
-0.6943147347
-0.6113922558
-0.4735869944
-0.2697416962
-0.06687367727
-0.07355539041
-0.2857675456
-0.4917838166
-0.6341631621
-0.7222259297
-0.7702456796
-0.794342317
-0.8064065073
-0.8112651334
-0.8132696905
-0.8135277983
-0.8134829718
-0.8133110347
-0.8134829718
-0.8135277983
-0.8132696905
-0.8112651334
-0.8064065073
-0.794342317
-0.7702456796
-0.7222259297
-0.6341631621
-0.4917838166
-0.2857675456
-0.07355539041
-0.07977664661
-0.3012389887
-0.5091441795
-0.6565466791
-0.7502865733
-0.8063864311
-0.8381479687
-0.8580769717
-0.8699641949
-0.8781387708
-0.8831423411
-0.8861439975
-0.8870110777
-0.8861439975
-0.8831423411
-0.8781387708
-0.8699641949
-0.8580769717
-0.8381479687
-0.8063864311
-0.7502865733
-0.6565466791
-0.5091441795
-0.3012389887
-0.07977664661
-0.08504409528
-0.3148803477
-0.5240422269
-0.6764954314
-0.7760707711
-0.8406250037
-0.8805776705
-0.9090963449
-0.928908565
-0.9441543921
-0.9547073633
-0.9613070729
-0.9634153438
-0.9613070729
-0.9547073633
-0.9441543921
-0.928908565
-0.9090963449
-0.8805776705
-0.8406250037
-0.7760707711
-0.6764954314
-0.5240422269
-0.3148803477
-0.08504409528
-0.08884986765
-0.3253228228
-0.5347744718
-0.6917512571
-0.796756966
-0.8693688511
-0.9173361041
-0.9542200022
-0.9819873397
-1.004409965
-1.020674913
-1.031006184
-1.034415939
-1.031006184
-1.020674913
-1.004409965
-0.9819873397
-0.9542200022
-0.9173361041
-0.8693688511
-0.796756966
-0.6917512571
-0.5347744718
-0.3253228228
-0.08884986765
-0.09074078202
-0.3312854526
-0.5398257396
-0.7002032884
-0.8095603297
-0.8888968719
-0.9438600171
-0.9878253482
-1.022291577
-1.050802172
-1.071955715
-1.08549779
-1.090026623
-1.08549779
-1.071955715
-1.050802172
-1.022291577
-0.9878253482
-0.9438600171
-0.8888968719
-0.8095603297
-0.7002032884
-0.5398257396
-0.3312854526
-0.09074078202
-0.09045970349
-0.3318263333
-0.5381101096
-0.7002429693
-0.8123027697
-0.8960993068
-0.955782614
-1.004546172
-1.04349195
-1.075969356
-1.100237131
-1.115818545
-1.121056097
-1.115818545
-1.100237131
-1.075969356
-1.04349195
-1.004546172
-0.955782614
-0.8960993068
-0.8123027697
-0.7002429693
-0.5381101096
-0.3318263333
-0.09045970349
-0.08799593447
-0.3266007879
-0.5293280176
-0.6912252787
-0.8039665918
-0.8893520463
-0.9507328634
-1.000915627
-1.040996172
-1.07428715
-1.099091612
-1.114974835
-1.120301256
-1.114974835
-1.099091612
-1.07428715
-1.040996172
-1.000915627
-0.9507328634
-0.8893520463
-0.8039665918
-0.6912252787
-0.5293280176
-0.3266007879
-0.08799593447
-0.08364125916
-0.3159751254
-0.5139291428
-0.6736097346
-0.7850150241
-0.8690619656
-0.929012597
-0.9771059727
-1.01480194
-1.045546734
-1.068108383
-1.082427615
-1.087171314
-1.082427615
-1.068108383
-1.045546734
-1.01480194
-0.9771059727
-0.929012597
-0.8690619656
-0.7850150241
-0.6736097346
-0.5139291428
-0.3159751254
-0.08364125916
-0.07788879993
-0.3009328824
-0.4931713215
-0.6489418026
-0.7572852032
-0.837566617
-0.8934910046
-0.9366634332
-0.9692186836
-0.9948561444
-1.013109771
-1.02450319
-1.028196448
-1.02450319
-1.013109771
-0.9948561444
-0.9692186836
-0.9366634332
-0.8934910046
-0.837566617
-0.7572852032
-0.6489418026
-0.4931713215
-0.3009328824
-0.07788879993
-0.07134812669
-0.2828779594
-0.4687508552
-0.6194365602
-0.7235591889
-0.7984763884
-0.8487001612
-0.8852465778
-0.9110961198
-0.9302777264
-0.9432058573
-0.9510336288
-0.9534743782
-0.9510336288
-0.9432058573
-0.9302777264
-0.9110961198
-0.8852465778
-0.8487001612
-0.7984763884
-0.7235591889
-0.6194365602
-0.4687508552
-0.2828779594
-0.07134812669
-0.06462119492
-0.2633628768
-0.4425321959
-0.5875107843
-0.6868827885
-0.7557772029
-0.7996689454
-0.8290925477
-0.8479084432
-0.8604950914
-0.8680948008
-0.8724020971
-0.8736259901
-0.8724020971
-0.8680948008
-0.8604950914
-0.8479084432
-0.8290925477
-0.7996689454
-0.7557772029
-0.6868827885
-0.5875107843
-0.4425321959
-0.2633628768
-0.06462119492
-0.05820810855
-0.2438245486
-0.4162310723
-0.5554007367
-0.6500546218
-0.7130584699
-0.7508435539
-0.7735878451
-0.7859690744
-0.792678648
-0.7956310521
-0.7969145076
-0.7971078602
-0.7969145076
-0.7956310521
-0.792678648
-0.7859690744
-0.7735878451
-0.7508435539
-0.7130584699
-0.6500546218
-0.5554007367
-0.4162310723
-0.2438245486
-0.05820810855
-0.05245646519
-0.2253988579
-0.3912100145
-0.5248633267
-0.6152314486
-0.6730311921
-0.7055087351
-0.7226004004
-0.7296665596
-0.731652051
-0.7309530454
-0.7298993567
-0.7293092124
-0.7298993567
-0.7309530454
-0.731652051
-0.7296665596
-0.7226004004
-0.7055087351
-0.6730311921
-0.6152314486
-0.5248633267
-0.3912100145
-0.2253988579
-0.05245646519
-0.04755626081
-0.2088497824
-0.3684021911
-0.4970846772
-0.5838275038
-0.6373957442
-0.6656271148
-0.6783118577
-0.6813321673
-0.6798229684
-0.6764913286
-0.6737836406