/*--------------------------------*- C++ -*----------------------------------*\
| =========                 |                                                 |
| \\      /  F ield         | OpenFOAM: The Open Source CFD Toolbox           |
|  \\    /   O peration     | Version:  2.1.x                                 |
|   \\  /    A nd           | Web:      www.OpenFOAM.org                      |
|    \\/     M anipulation  |                                                 |
\*---------------------------------------------------------------------------*/
FoamFile
{
    version     2.0;
    format      ascii;
    class       volScalarField;
    location    "3500";
    object      approx1_Gw;
}
// * * * * * * * * * * * * * * * * * * * * * * * * * * * * * * * * * * * * * //

dimensions      [0 2 -3 0 0 0 0];

internalField   uniform 0;

boundaryField
{
    inlet
    {
        type            calculated;
        value           uniform 0;
    }
    outlet
    {
        type            calculated;
        value           uniform 0;
    }
    top_left
    {
        type            calculated;
        value           nonuniform List<scalar> 
250
(
3.912091642
4.893540895
6.032306794
7.494805531
9.125511868
9.752488475
10.16518686
10.24284111
10.29313149
10.25713858
10.2357115
10.20837354
10.20648738
10.20837354
10.2357115
10.25713858
10.29313149
10.24284111
10.16518686
9.752488475
9.125511868
7.494805531
6.032306794
4.893540895
3.912091642
-3.647737372
-3.939375753
-3.29348145
-3.074401245
-2.743862312
-2.668223627
-2.566294779
-2.553947178
-2.535275846
-2.546376493
-2.551398604
-2.561267535
-2.562023885
-2.561267535
-2.551398604
-2.546376493
-2.535275846
-2.553947178
-2.566294779
-2.668223627
-2.743862312
-3.074401245
-3.29348145
-3.939375753
-3.647737372
0.6882194773
-0.2357285271
-0.3851801359
-0.5409711406
-0.3556302646
-0.2724276634
-0.1394548791
-0.06383438717
0.02296053837
0.08649442695
0.1455323534
0.1818033217
0.1970624703
0.1818033217
0.1455323534
0.08649442695
0.02296053837
-0.06383438717
-0.1394548791
-0.2724276634
-0.3556302646
-0.5409711406
-0.3851801359
-0.2357285271
0.6882194773
-0.1679705959
-0.6678227089
-0.7979773406
-0.8710340115
-0.8003336418
-0.7614085963
-0.695046008
-0.6530999599
-0.6084929007
-0.5767022198
-0.54907711
-0.5326383157
-0.5259289925
-0.5326383157
-0.54907711
-0.5767022198
-0.6084929007
-0.6530999599
-0.695046008
-0.7614085963
-0.8003336418
-0.8710340115
-0.7979773406
-0.6678227089
-0.1679705959
0.06779787729
-0.3702179158
-0.5697458038
-0.7110655521
-0.696560406
-0.6793214546
-0.6282523298
-0.5866625798
-0.5398019921
-0.5012615975
-0.4677541706
-0.4464656296
-0.4382902569
-0.4464656296
-0.4677541706
-0.5012615975
-0.5398019921
-0.5866625798
-0.6282523298
-0.6793214546
-0.696560406
-0.7110655521
-0.5697458038
-0.3702179158
0.06779787729
-0.01823452266
-0.348016321
-0.5450004549
-0.6615400895
-0.6707272362
-0.6626796491
-0.6299812965
-0.5988429546
-0.5640281651
-0.5339662456
-0.5081597483
-0.4914244441
-0.4851612682
-0.4914244441
-0.5081597483
-0.5339662456
-0.5640281651
-0.5988429546
-0.6299812965
-0.6626796491
-0.6707272362
-0.6615400895
-0.5450004549
-0.348016321
-0.01823452266
-0.003317178412
-0.283486734
-0.4916067436
-0.6205489722
-0.6511511984
-0.65263431
-0.629948669
-0.6029728997
-0.5716311542
-0.5426374151
-0.5175215299
-0.50078676
-0.4946174363
-0.50078676
-0.5175215299
-0.5426374151
-0.5716311542
-0.6029728997
-0.629948669
-0.65263431
-0.6511511984
-0.6205489722
-0.4916067436
-0.283486734
-0.003317178412
-0.01801533919
-0.2570962559
-0.4631655963
-0.5861972285
-0.6268697512
-0.6324345039
-0.6171455244
-0.5945603663
-0.5679513653
-0.5420674398
-0.519504399
-0.5041587021
-0.4985417248
-0.5041587021
-0.519504399
-0.5420674398
-0.5679513653
-0.5945603663
-0.6171455244
-0.6324345039
-0.6268697512
-0.5861972285
-0.4631655963
-0.2570962559
-0.01801533919
-0.02017954858
-0.2337141694
-0.4393510578
-0.5645145589
-0.6141851788
-0.6238409542
-0.6131252396
-0.5927372177
-0.5680682495
-0.5430501899
-0.5210210489
-0.505795045
-0.5002223387
-0.505795045
-0.5210210489
-0.5430501899
-0.5680682495
-0.5927372177
-0.6131252396
-0.6238409542
-0.6141851788
-0.5645145589
-0.4393510578
-0.2337141694
-0.02017954858
-0.02485422264
-0.2195927906
-0.4214892174
-0.5449911745
-0.5992381758
-0.6106543056
-0.6022095324
-0.5827681801
-0.5589738446
-0.5342779625
-0.5123675558
-0.4970720439
-0.49144394
-0.4970720439
-0.5123675558
-0.5342779625
-0.5589738446
-0.5827681801
-0.6022095324
-0.6106543056
-0.5992381758
-0.5449911745
-0.4214892174
-0.2195927906
-0.02485422264
)
;
    }
    top_center
    {
        type            calculated;
        value           nonuniform List<scalar> 
750
(
-0.02766886042
-0.2098378606
-0.4080506083
-0.5311000561
-0.5882764709
-0.6005519862
-0.5923503101
-0.5721538828
-0.5472723027
-0.5213322999
-0.4982397387
-0.4820715642
-0.4760806737
-0.4820715642
-0.4982397387
-0.5213322999
-0.5472723027
-0.5721538828
-0.5923503101
-0.6005519862
-0.5882764709
-0.5311000561
-0.4080506083
-0.2098378606
-0.02766886042
-0.03062855828
-0.2041124189
-0.3978586969
-0.5190787941
-0.5766494997
-0.5880281086
-0.5778497449
-0.5550096003
-0.5270257004
-0.4982120047
-0.4726483933
-0.4548597362
-0.4482504028
-0.4548597362
-0.4726483933
-0.4982120047
-0.5270257004
-0.5550096003
-0.5778497449
-0.5880281086
-0.5766494997
-0.5190787941
-0.3978586969
-0.2041124189
-0.03062855828
-0.03345937927
-0.2015368719
-0.3909461873
-0.5099003118
-0.566035077
-0.5749368823
-0.5603111067
-0.5322426816
-0.4983305228
-0.4642912216
-0.434599569
-0.4143450209
-0.4068744321
-0.4143450209
-0.434599569
-0.4642912216
-0.4983305228
-0.5322426816
-0.5603111067
-0.5749368823
-0.566035077
-0.5099003118
-0.3909461873
-0.2015368719
-0.03345937927
-0.03644426242
-0.2016792912
-0.3869310167
-0.5028230587
-0.5554973842
-0.5597780453
-0.5376224582
-0.5008561399
-0.4571159348
-0.4142941683
-0.3779083428
-0.3538858961
-0.3452242393
-0.3538858961
-0.3779083428
-0.4142941683
-0.4571159348
-0.5008561399
-0.5376224582
-0.5597780453
-0.5554973842
-0.5028230587
-0.3869310167
-0.2016792912
-0.03644426242
-0.03965623915
-0.2043818341
-0.3861515204
-0.4986188745
-0.5460351695
-0.5431388421
-0.5091160454
-0.457542506
-0.3967146037
-0.3386679815
-0.2919047272
-0.2632297103
-0.2535130069
-0.2632297103
-0.2919047272
-0.3386679815
-0.3967146037
-0.457542506
-0.5091160454
-0.5431388421
-0.5460351695
-0.4986188745
-0.3861515204
-0.2043818341
-0.03965623915
-0.04324325172
-0.2096880903
-0.3889558363
-0.4979271745
-0.5382841713
-0.5245721384
-0.4717215775
-0.3950222549
-0.3112281739
-0.2452399007
-0.2023520583
-0.1802596829
-0.1736595512
-0.1802596829
-0.2023520583
-0.2452399007
-0.3112281739
-0.3950222549
-0.4717215775
-0.5245721384
-0.5382841713
-0.4979271745
-0.3889558363
-0.2096880903
-0.04324325172
-0.04739680589
-0.2179253239
-0.3961805654
-0.5022393089
-0.5341254925
-0.504834271
-0.4252220269
-0.3327518838
-0.2527923861
-0.1981133217
-0.1668580675
-0.153304105
-0.1500028797
-0.153304105
-0.1668580675
-0.1981133217
-0.2527923861
-0.3327518838
-0.4252220269
-0.504834271
-0.5341254925
-0.5022393089
-0.3961805654
-0.2179253239
-0.04739680589
-0.05233938698
-0.2295794438
-0.4089279011
-0.5135657075
-0.5354775283
-0.4883019755
-0.4024605711
-0.3245815891
-0.2619009222
-0.2162617499
-0.1874580379
-0.1746780508
-0.1718171888
-0.1746780508
-0.1874580379
-0.2162617499
-0.2619009222
-0.3245815891
-0.4024605711
-0.4883019755
-0.5354775283
-0.5135657075
-0.4089279011
-0.2295794438
-0.05233938698
-0.05827391546
-0.2451086606
-0.428044335
-0.532756437
-0.5442742788
-0.4999288024
-0.4428021532
-0.3895377715
-0.3337045517
-0.2851010083
-0.2505841788
-0.2334882573
-0.2293556675
-0.2334882573
-0.2505841788
-0.2851010083
-0.3337045517
-0.3895377715
-0.4428021532
-0.4999288024
-0.5442742788
-0.532756437
-0.428044335
-0.2451086606
-0.05827391546
-0.06524925835
-0.2644639016
-0.4531091093
-0.5554147488
-0.5731004802
-0.5668280059
-0.552040478
-0.5212899666
-0.4727788258
-0.4206798398
-0.378114402
-0.3542789579
-0.3476345524
-0.3542789579
-0.378114402
-0.4206798398
-0.4727788258
-0.5212899666
-0.552040478
-0.5668280059
-0.5731004802
-0.5554147488
-0.4531091093
-0.2644639016
-0.06524925835
-0.07306760501
-0.2867130846
-0.48120478
-0.5856261852
-0.6348145696
-0.6866724435
-0.7225784393
-0.7328276075
-0.7131363571
-0.6754377243
-0.6360594417
-0.6104829016
-0.6014446601
-0.6104829016
-0.6360594417
-0.6754377243
-0.7131363571
-0.7328276075
-0.7225784393
-0.6866724435
-0.6348145696
-0.5856261852
-0.48120478
-0.2867130846
-0.07306760501
-0.08111004096
-0.3092419823
-0.504798725
-0.6254656177
-0.7218272944
-0.8411699018
-0.9520166605
-1.038453228
-1.088906933
-1.109434434
-1.114702123
-1.115273366
-1.109950604
-1.115273366
-1.114702123
-1.109434434
-1.088906933
-1.038453228
-0.9520166605
-0.8411699018
-0.7218272944
-0.6254656177
-0.5047987249
-0.3092419823
-0.08111004096
-0.08840329305
-0.3287702064
-0.5221956969
-0.6613296692
-0.8129722701
-1.003936197
-1.210497978
-1.412334082
-1.589498596
-1.734536319
-1.84451009
-1.898885668
-1.884163496
-1.898885668
-1.84451009
-1.734536319
-1.589498596
-1.412334082
-1.210497978
-1.003936197
-0.8129722701
-0.6613296692
-0.5221956969
-0.3287702064
-0.08840329305
-0.09343882315
-0.3414611938
-0.5326948186
-0.6847496576
-0.8770108967
-1.129054905
-1.429659485
-1.760366609
-2.094593911
-2.400504252
-2.639335613
-2.769602354
-2.772896062
-2.769602354
-2.639335613
-2.400504252
-2.094593911
-1.760366609
-1.429659485
-1.129054905
-0.8770108967
-0.6847496576
-0.5326948186
-0.3414611938
-0.09343882315
-0.094397972
-0.343903963
-0.5303149862
-0.6836142986
-0.8910980646
-1.174041606
-1.533321785
-1.957304669
-2.416055387
-2.847866195
-3.186596748
-3.467148965
-3.811537513
-3.467148965
-3.186596748
-2.847866195
-2.416055387
-1.957304669
-1.533321785
-1.174041606
-0.8910980646
-0.6836142986
-0.5303149862
-0.343903963
-0.094397972
-0.09090147344
-0.3347521678
-0.5119946285
-0.6523039693
-0.8466949295
-1.117582778
-1.471579011
-1.901358078
-2.377300481
-2.830544283
-3.180069781
-3.457851719
-3.791542591
-3.457851719
-3.180069781
-2.830544283
-2.377300481
-1.901358078
-1.471579011
-1.117582778
-0.8466949295
-0.6523039693
-0.5119946285
-0.3347521678
-0.09090147344
-0.08392307034
-0.316089344
-0.4812356359
-0.5970158324
-0.7541648057
-0.9743398756
-1.262027821
-1.608914067
-1.988828015
-2.352452192
-2.628423783
-2.769676498
-2.77674976
-2.769676498
-2.628423783
-2.352452192
-1.988828015
-1.608914067
-1.262027821
-0.9743398756
-0.7541648057
-0.5970158324
-0.4812356359
-0.316089344
-0.08392307034
-0.07497433504
-0.2913381497
-0.4457671457
-0.5332787731
-0.6384067952
-0.7882013561
-0.9800638997
-1.202936045
-1.4358945
-1.651606731
-1.817774719
-1.903447568
-1.903406964
-1.903447568
-1.817774719
-1.651606731
-1.4358945
-1.202936045
-0.9800638997
-0.7882013561
-0.6384067952
-0.5332787731
-0.4457671457
-0.2913381497
-0.07497433504
-0.06566101181
-0.2641720486
-0.4126692788
-0.4765759819
-0.5268132661
-0.6072641742
-0.7094592772
-0.82139329
-0.9284590334
-1.016692362
-1.078393658
-1.112654993
-1.119999601
-1.112654993
-1.078393658
-1.016692362
-0.9284590334
-0.82139329
-0.7094592772
-0.6072641742
-0.5268132661
-0.4765759819
-0.4126692788
-0.2641720486
-0.06566101181
-0.05718779918
-0.2380247962
-0.3823334239
-0.4349663076
-0.4418162522
-0.4635622003
-0.4999377845
-0.5382385964
-0.5697043548
-0.5877989045
-0.5925012158
-0.5911662568
-0.5891331077
-0.5911662568
-0.5925012158
-0.5877989045
-0.5697043548
-0.5382385964
-0.4999377845
-0.4635622003
-0.4418162522
-0.4349663076
-0.3823334239
-0.2380247962
-0.05718779918
-0.05026970794
-0.2155484796
-0.3551254387
-0.4142977908
-0.3979532388
-0.3712776609
-0.3635040005
-0.360692129
-0.356519577
-0.3473345422
-0.3342886047
-0.323071716
-0.3186892816
-0.323071716
-0.3342886047
-0.3473345422
-0.356519577
-0.360692129
-0.3635040005
-0.3712776609
-0.3979532388
-0.4142977908
-0.3551254387
-0.2155484796
-0.05026970794
-0.04509323912
-0.1977758892
-0.3337545252
-0.4062215186
-0.3953860715
-0.3379509596
-0.2932519805
-0.2658169957
-0.2454009263
-0.2272919971
-0.2111684179
-0.1997335555
-0.1955508561
-0.1997335555
-0.2111684179
-0.2272919971
-0.2454009263
-0.2658169957
-0.2932519805
-0.3379509596
-0.3953860715
-0.4062215186
-0.3337545252
-0.1977758892
-0.04509323912
-0.0414747024
-0.1844245145
-0.3180971364
-0.3995361709
-0.412762777
-0.3595650977
-0.2870216766
-0.233277153
-0.1994921452
-0.176161672
-0.1591626426
-0.148372015
-0.1446417889
-0.148372015
-0.1591626426
-0.176161672
-0.1994921452
-0.233277153
-0.2870216766
-0.3595650977
-0.412762777
-0.3995361709
-0.3180971364
-0.1844245145
-0.0414747024
-0.03911142606
-0.1747846835
-0.3070625212
-0.3957649618
-0.4283242735
-0.4039573644
-0.3369995235
-0.2631780932
-0.207735088
-0.1712776033
-0.1490241849
-0.136671841
-0.1326756073
-0.136671841
-0.1490241849
-0.1712776033
-0.207735088
-0.2631780932
-0.3369995235
-0.4039573644
-0.4283242735
-0.3957649618
-0.3070625212
-0.1747846835
-0.03911142606
-0.03768484643
-0.1679758773
-0.2993018538
-0.3938943195
-0.4397624975
-0.4383504471
-0.4003672346
-0.3381064001
-0.2724040182
-0.2211316266
-0.1874778837
-0.1683777752
-0.1621829225
-0.1683777752
-0.1874778837
-0.2211316266
-0.2724040182
-0.3381064001
-0.4003672346
-0.4383504471
-0.4397624975
-0.3938943195
-0.2993018538
-0.1679758773
-0.03768484643
-0.03692088664
-0.1632579678
-0.2937354734
-0.3929676781
-0.448628314
-0.4623104528
-0.4437687352
-0.404963228
-0.3572594341
-0.3102984194
-0.2723039894
-0.2483182346
-0.2401817429
-0.2483182346
-0.2723039894
-0.3102984194
-0.3572594341
-0.404963228
-0.4437687352
-0.4623104528
-0.448628314
-0.3929676781
-0.2937354734
-0.1632579678
-0.03692088664
-0.03660214997
-0.1601217134
-0.2896785358
-0.3924084529
-0.4553890145
-0.4798391572
-0.474005018
-0.4491889887
-0.4153819752
-0.3811009033
-0.3525041706
-0.3338675731
-0.3273974495
-0.3338675731
-0.3525041706
-0.3811009033
-0.4153819752
-0.4491889887
-0.474005018
-0.4798391572
-0.4553890145
-0.3924084529
-0.2896785358
-0.1601217134
-0.03660214997
-0.03654960109
-0.1580816942
-0.2865975288
-0.3918830162
-0.460265968
-0.4927693958
-0.496044322
-0.4809888698
-0.4564072812
-0.430187718
-0.4076660567
-0.3927687021
-0.3875350093
-0.3927687021
-0.4076660567
-0.430187718
-0.4564072812
-0.4809888698
-0.496044322
-0.4927693958
-0.460265968
-0.3918830162
-0.2865975288
-0.1580816942
-0.03654960109
-0.03663647776
-0.1567546751
-0.2841910889
-0.3912725691
-0.4635581091
-0.5020688461
-0.5120155101
-0.5041137698
-0.4862736248
-0.4659984066
-0.4480215074
-0.4359811916
-0.431709182
-0.4359811916
-0.4480215074
-0.4659984066
-0.4862736248
-0.5041137698
-0.5120155101
-0.5020688461
-0.4635581091
-0.3912725691
-0.2841910889
-0.1567546751
-0.03663647776
-0.03675955808
-0.15581158
-0.2820948596
-0.3904780092
-0.4655606011
-0.5085435943
-0.5234248606
-0.5208287739
-0.5080101599
-0.4922203573
-0.4777469829
-0.4679614477
-0.4644613986
-0.4679614477
-0.4777469829
-0.4922203573
-0.5080101599
-0.5208287739
-0.5234248606
-0.5085435943
-0.4655606011
-0.3904780092
-0.2820948596
-0.15581158
-0.03675955808
)
;
    }
    top_right
    {
        type            calculated;
        value           nonuniform List<scalar> 
250
(
-0.03684971813
-0.1550638772
-0.2801654327
-0.3895496755
-0.4666570544
-0.512929262
-0.5314018783
-0.5326583086
-0.5234869253
-0.5109754288
-0.4990888775
-0.4909729848
-0.4880496439
-0.4909729848
-0.4990888775
-0.5109754288
-0.5234869253
-0.5326583086
-0.5314018783
-0.512929262
-0.4666570544
-0.3895496755
-0.2801654327
-0.1550638772
-0.03684971813
-0.03683027076
-0.1542699747
-0.2781457679
-0.3884102487
-0.467059085
-0.515826172
-0.5370321555
-0.5411993903
-0.5347834192
-0.5247317207
-0.5148013735
-0.5079447897
-0.5054610272
-0.5079447897
-0.5148013735
-0.5247317207
-0.5347834192
-0.5411993903
-0.5370321555
-0.515826172
-0.467059085
-0.3884102487
-0.2781457679
-0.1542699747
-0.03683027076
-0.03664312873
-0.1533446069
-0.2760555399
-0.3872641019
-0.4671597585
-0.5178191214
-0.5410038769
-0.5472241285
-0.5427661015
-0.5344463667
-0.5259065349
-0.5199481584
-0.5177811192
-0.5199481584
-0.5259065349
-0.5344463667
-0.5427661015
-0.5472241285
-0.5410038769
-0.5178191214
-0.4671597585
-0.3872641019
-0.2760555399
-0.1533446069
-0.03664312873
-0.03617691344
-0.1520113436
-0.273647335
-0.3859984799
-0.4671100151
-0.5194227981
-0.5443037806
-0.552242519
-0.5494294904
-0.5425289032
-0.5351279278
-0.5298867407
-0.527976782
-0.5298867407
-0.5351279278
-0.5425289032
-0.5494294904
-0.552242519
-0.5443037806
-0.5194227981
-0.4671100151
-0.3859984799
-0.273647335
-0.1520113436
-0.03617691344
-0.03529456487
-0.1501768809
-0.2711228154
-0.3849876797
-0.4674080049
-0.5210993677
-0.5473058372
-0.5564660683
-0.5548645709
-0.5489919979
-0.5424481571
-0.5377539872
-0.5360412606
-0.5377539872
-0.5424481571
-0.5489919979
-0.5548645709
-0.5564660683
-0.5473058372
-0.5210993677
-0.4674080049
-0.3849876797
-0.2711228154
-0.1501768809
-0.03529456487
-0.03378492123
-0.1473778744
-0.2681906184
-0.3839451406
-0.4681114203
-0.5233488198
-0.5512443002
-0.5619526382
-0.5619072747
-0.5573536908
-0.5518839643
-0.5478736051
-0.5464075363
-0.5478736051
-0.5518839643
-0.5573536908
-0.5619072747
-0.5619526382
-0.5512443002
-0.5233488198
-0.4681114203
-0.3839451406
-0.2681906184
-0.1473778744
-0.03378492123
-0.03100263846
-0.1429421452
-0.2650682659
-0.383338971
-0.4698938371
-0.5268219541
-0.5566371715
-0.5690418557
-0.5707528776
-0.5677233178
-0.5635137445
-0.5603146805
-0.5591389546
-0.5603146805
-0.5635137445
-0.5677233178
-0.5707528776
-0.5690418557
-0.5566371715
-0.5268219541
-0.4698938371
-0.383338971
-0.2650682659
-0.1429421452
-0.03100263846
-0.02674200024
-0.1357466748
-0.260618406
-0.3813906847
-0.4712173668
-0.5308184228
-0.5641412207
-0.5800153897
-0.5852524009
-0.5853373719
-0.5836374874
-0.5820581258
-0.5814500579
-0.5820581258
-0.5836374874
-0.5853373719
-0.5852524009
-0.5800153897
-0.5641412207
-0.5308184228
-0.4712173668
-0.3813906847
-0.260618406
-0.1357466748
-0.02674200024
-0.01551493638
-0.1176844562
-0.2524995842
-0.3799429176
-0.4785730894
-0.5463699458
-0.5891714854
-0.6145369841
-0.6289376402
-0.6369725497
-0.641436655
-0.643743569
-0.6444667596
-0.643743569
-0.641436655
-0.6369725497
-0.6289376402
-0.6145369841
-0.5891714854
-0.5463699458
-0.4785730894
-0.3799429176
-0.2524995842
-0.1176844562
-0.01551493638
-0.002467895574
-0.08929812835
-0.2298830016
-0.3581845537
-0.4622854183
-0.5382266061
-0.5926294064
-0.631177397
-0.658967856
-0.6791074947
-0.6931873129
-0.701670355
-0.7045227761
-0.701670355
-0.6931873129
-0.6791074947
-0.658967856
-0.631177397
-0.5926294064
-0.5382266061
-0.4622854183
-0.3581845537
-0.2298830016
-0.08929812836
-0.002467895574
)
;
    }
    down
    {
        type            calculated;
        value           nonuniform List<scalar> 
1250
(
3.947920946
4.958729621
6.09356495
7.586632331
9.280969128
9.999563502
10.52004137
10.71149275
10.86625464
10.91246266
10.94321426
10.9405025
10.94491301
10.9405025
10.94321426
10.91246266
10.86625464
10.71149275
10.52004137
9.999563502
9.280969128
7.586632331
6.09356495
4.958729621
3.947920946
-3.6411923
-3.9292186
-3.28808179
-3.066631166
-2.723943977
-2.626699778
-2.498093832
-2.457576251
-2.413050522
-2.403069672
-2.393333225
-2.394877315
-2.393029426
-2.394877315
-2.393333225
-2.403069672
-2.413050522
-2.457576251
-2.498093832
-2.626699778
-2.723943977
-3.066631166
-3.28808179
-3.9292186
-3.6411923
0.700825305
-0.2185411437
-0.369869521
-0.5202131099
-0.3249051393
-0.2314199847
-0.09277645668
-0.01863728044
0.05768230427
0.102975307
0.1401495555
0.158195515
0.1662159426
0.158195515
0.1401495555
0.102975307
0.05768230427
-0.01863728044
-0.09277645668
-0.2314199847
-0.3249051393
-0.5202131099
-0.369869521
-0.2185411437
0.700825305
-0.1601784051
-0.6548524497
-0.7855866992
-0.8565023933
-0.7807946961
-0.7356162861
-0.6641914587
-0.619598947
-0.5759083411
-0.5482399456
-0.5266522925
-0.5156005823
-0.5110984041
-0.5156005823
-0.5266522925
-0.5482399456
-0.5759083411
-0.619598947
-0.6641914587
-0.7356162861
-0.7807946961
-0.8565023933
-0.7855866992
-0.6548524497
-0.1601784051
0.07574464352
-0.3571292283
-0.5570230884
-0.6967295819
-0.6787058774
-0.6578787949
-0.6054858714
-0.565830905
-0.5249166196
-0.4954176208
-0.4721297331
-0.4590272894
-0.4540509171
-0.4590272894
-0.4721297331
-0.4954176208
-0.5249166196
-0.565830905
-0.6054858714
-0.6578787949
-0.6787058774
-0.6967295819
-0.5570230884
-0.3571292283
0.07574464352
-0.01116730246
-0.3353946357
-0.5325535169
-0.6475685498
-0.6538127835
-0.6424329195
-0.6080376897
-0.5774468529
-0.5462250528
-0.5220983734
-0.5033075557
-0.4922732992
-0.4882683003
-0.4922732992
-0.5033075557
-0.5220983734
-0.5462250528
-0.5774468529
-0.6080376897
-0.6424329195
-0.6538127835
-0.6475685498
-0.5325535169
-0.3353946357
-0.01116730246
0.003314188563
-0.271666385
-0.4803163976
-0.6078734701
-0.6361008052
-0.6350371623
-0.611679111
-0.586275623
-0.5595231141
-0.5372857609
-0.5198386432
-0.5091879198
-0.5054115064
-0.5091879198
-0.5198386432
-0.5372857609
-0.5595231141
-0.586275623
-0.611679111
-0.6350371623
-0.6361008052
-0.6078734701
-0.4803163976
-0.271666385
0.003314188564
-0.01206330252
-0.2464931762
-0.4535972323
-0.5751918731
-0.6137821989
-0.617036014
-0.6013716736
-0.5804346459
-0.5583512009
-0.5389644281
-0.5237896341
-0.5142722682
-0.5109649251
-0.5142722682
-0.5237896341
-0.5389644281
-0.5583512009
-0.5804346459
-0.6013716736
-0.617036014
-0.6137821989
-0.5751918731
-0.4535972323
-0.2464931762
-0.01206330252
-0.01497086368
-0.2249595515
-0.4325904431
-0.5566534154
-0.6049039825
-0.6129890277
-0.6029245078
-0.5851932986
-0.5661120623
-0.5485056806
-0.534670389
-0.5258052014
-0.5227572081
-0.5258052014
-0.534670389
-0.5485056806
-0.5661120623
-0.5851932986
-0.6029245078
-0.6129890277
-0.6049039825
-0.5566534154
-0.4325904431
-0.2249595515
-0.01497086368
-0.02054761929
-0.2132126008
-0.4183797519
-0.5414345574
-0.5952836078
-0.6062113431
-0.5998607526
-0.5844791654
-0.567747235
-0.5517284083
-0.5391326151
-0.53094471
-0.5281497751
-0.53094471
-0.5391326151
-0.5517284083
-0.567747235
-0.5844791654
-0.5998607526
-0.6062113431
-0.5952836078
-0.5414345574
-0.4183797519
-0.2132126008
-0.02054761929
-0.02440209738
-0.2064326958
-0.4096619403
-0.5335793388
-0.5922235485
-0.605998649
-0.6024177896
-0.5887891048
-0.57362799
-0.5586897022
-0.5469023748
-0.5391698851
-0.5365336078
-0.5391698851
-0.5469023748
-0.5586897022
-0.57362799
-0.5887891048
-0.6024177896
-0.605998649
-0.5922235485
-0.5335793388
-0.4096619403
-0.2064326958
-0.02440209738
-0.02853646046
-0.2041801749
-0.4051888597
-0.5293379277
-0.5912547099
-0.6072271952
-0.605561106
-0.5932213196
-0.5791525864
-0.5650383699
-0.5538556984
-0.5464911077
-0.5439755157
-0.5464911077
-0.5538556984
-0.5650383699
-0.5791525864
-0.5932213196
-0.605561106
-0.6072271952
-0.5912547099
-0.5293379277
-0.4051888597
-0.2041801749
-0.02853646046
-0.03268420055
-0.2055880656
-0.4050479113
-0.5299031402
-0.594612215
-0.6127852621
-0.6126813075
-0.6014451222
-0.588159625
-0.5746738954
-0.5639155688
-0.5568285663
-0.5543931304
-0.5568285663
-0.5639155688
-0.5746738954
-0.588159625
-0.6014451222
-0.6126813075
-0.6127852621
-0.594612215
-0.5299031402
-0.4050479113
-0.2055880656
-0.03268420055
-0.03720288727
-0.2101385611
-0.4086338429
-0.5342612632
-0.60129144
-0.6216497673
-0.6229450077
-0.6128112287
-0.6002334111
-0.5873691433
-0.577007785
-0.5701958145
-0.5678351179
-0.5701958145
-0.577007785
-0.5873691433
-0.6002334111
-0.6128112287
-0.6229450077
-0.6216497673
-0.60129144
-0.5342612632
-0.4086338429
-0.2101385611
-0.03720288727
-0.04218450326
-0.217595297
-0.4159109082
-0.5427113726
-0.6120772065
-0.6349660774
-0.6378649618
-0.6291222646
-0.6174401721
-0.6053944079
-0.5955683213
-0.5891140306
-0.5868566205
-0.5891140306
-0.5955683213
-0.6053944079
-0.6174401721
-0.6291222646
-0.6378649618
-0.6349660774
-0.6120772065
-0.5427113726
-0.4159109082
-0.217595297
-0.04218450326
-0.04769644236
-0.2276272021
-0.4265054252
-0.5549574973
-0.626848631
-0.6528114167
-0.657799968
-0.6510544013
-0.6408058144
-0.6299889982
-0.6209643877
-0.6150333352
-0.6129320981
-0.6150333352
-0.6209643877
-0.6299889982
-0.6408058144
-0.6510544013
-0.657799968
-0.6528114167
-0.626848631
-0.5549574973
-0.4265054252
-0.2276272021
-0.04769644236
-0.05373821715
-0.2399697235
-0.4401025951
-0.5708839695
-0.6457765917
-0.6756338805
-0.6835650517
-0.6797618785
-0.6716530448
-0.662599916
-0.6547430796
-0.6495521722
-0.6476764872
-0.6495521722
-0.6547430796
-0.662599916
-0.6716530448
-0.6797618785
-0.6835650517
-0.6756338805
-0.6457765917
-0.5708839695
-0.4401025951
-0.2399697235
-0.05373821715
-0.06021800247
-0.2541939756
-0.4561162818
-0.58999566
-0.6685380754
-0.7033033654
-0.715340297
-0.7155579792
-0.7104810439
-0.7039616491
-0.6978809719
-0.6938125802
-0.692298549
-0.6938125802
-0.6978809719
-0.7039616491
-0.7104810439
-0.7155579792
-0.715340297
-0.7033033654
-0.6685380754
-0.58999566
-0.4561162818
-0.2541939756
-0.06021800247
-0.06694802423
-0.269734478
-0.4737682919
-0.6115426568
-0.6944994356
-0.7353307991
-0.7527760822
-0.7582366881
-0.7574134517
-0.7545161694
-0.7510801643
-0.7486870862
-0.7477241955
-0.7486870862
-0.7510801643
-0.7545161694
-0.7574134517
-0.7582366881
-0.7527760822
-0.7353307991
-0.6944994356
-0.6115426568
-0.4737682919
-0.269734478
-0.06694802423
-0.07362481616
-0.2857735691
-0.4919638737
-0.6343295181
-0.7224191748
-0.7704557132
-0.7945549158
-0.806636543
-0.8114959117
-0.8135109356
-0.8137687938
-0.8137275343
-0.813553823
-0.8137275343
-0.8137687938
-0.8135109356
-0.8114959117
-0.806636543
-0.7945549158
-0.7704557132
-0.7224191748
-0.6343295181
-0.4919638737
-0.2857735691
-0.07362481616
-0.07983704526
-0.3012594356
-0.5093120063
-0.6567206834
-0.7504792336
-0.8066138566
-0.8383825097
-0.8583440217
-0.8702419295
-0.8784366294
-0.8834469174
-0.8864566658
-0.8873235743
-0.8864566658
-0.8834469174
-0.8784366294
-0.8702419295
-0.8583440217
-0.8383825097
-0.8066138566
-0.7504792336
-0.6567206834
-0.5093120063
-0.3012594356
-0.07983704526
-0.08509121246
-0.314914201
-0.5241853594
-0.6766649604
-0.7762498526
-0.8408549421
-0.8808203833
-0.9093838131
-0.9292167882
-0.944492754
-0.9550608255
-0.96167396
-0.9637842421
-0.96167396
-0.9550608255
-0.944492754
-0.9292167882
-0.9093838131
-0.8808203833
-0.8408549421
-0.7762498526
-0.6766649604
-0.5241853594
-0.314914201
-0.08509121246
-0.08888012651
-0.3253669011
-0.5348798617
-0.6919013141
-0.7969067435
-0.8695819544
-0.9175696474
-0.9545061515
-0.9823004444
-1.004759781
-1.021046346
-1.03139519
-1.034808909
-1.03139519
-1.021046346
-1.004759781
-0.9823004444
-0.9545061515
-0.9175696474
-0.8695819544
-0.7969067435
-0.6919013141
-0.5348798617
-0.3253669011
-0.08888012651
-0.09075107789
-0.3313348934
-0.5398830092
-0.7003181482
-0.8096629864
-0.8890703551
-0.9440583169
-0.9880822352
-1.022581052
-1.051132881
-1.072311604
-1.085873516
-1.090407667
-1.085873516
-1.072311604
-1.051132881
-1.022581052
-0.9880822352
-0.9440583169
-0.8890703551
-0.8096629864
-0.7003181482
-0.5398830092
-0.3313348934
-0.09075107789
-0.0904484717
-0.3318733997
-0.5381136934
-0.7003122115
-0.8123463098
-0.8962130293
-0.9559165087
-1.004736675
-1.043715452
-1.07623419
-1.100527817
-1.116129876
-1.121373638
-1.116129876
-1.100527817
-1.07623419
-1.043715452
-1.004736675
-0.9559165087
-0.8962130293
-0.8123463098
-0.7003122115
-0.5381136934
-0.3318733997
-0.0904484717
-0.08796506378
-0.3266382673
-0.5292764855
-0.6912414114
-0.8039468722
-0.8893945916
-0.9507860767
-1.001013399
-1.041115763
-1.074438095
-1.099261519
-1.115161243
-1.120491802
-1.115161243
-1.099261519
-1.074438095
-1.041115763
-1.001013399
-0.9507860767
-0.8893945916
-0.8039468722
-0.6912414114
-0.5292764855
-0.3266382673
-0.08796506378
-0.08359504383
-0.3159989551
-0.5138288853
-0.6735701109
-0.7849328632
-0.869030228
-0.9289814585
-0.9771033936
-1.014806574
-1.045567923
-1.068136433
-1.082464165
-1.087207962
-1.082464165
-1.068136433
-1.045567923
-1.014806574
-0.9771033936
-0.9289814585
-0.869030228
-0.7849328632
-0.6735701109
-0.5138288853
-0.3159989551
-0.08359504383
-0.07783265193
-0.3009411451
-0.4930350396
-0.64885435
-0.7571512526
-0.8374684063
-0.8933836166
-0.9365681219
-0.9691170799
-0.9947568207
-1.013006283
-1.024400854
-1.028091265
-1.024400854
-1.013006283
-0.9947568207
-0.9691170799
-0.9365681219
-0.8933836166
-0.8374684063
-0.7571512526
-0.64885435
-0.4930350396
-0.3009411451
-0.07783265193
-0.07128783768
-0.2828712061
-0.4685931872
-0.6193143721
-0.723390618
-0.7983296225
-0.8485370307
-0.8850819718
-0.91091511
-0.9300879143
-0.9430038712
-0.9508271515
-0.9532633411
-0.9508271515
-0.9430038712
-0.9300879143
-0.91091511
-0.8850819718
-0.8485370307
-0.7983296225
-0.723390618
-0.6193143721
-0.4685931872
-0.2828712061
-0.07128783768
-0.06456192996
-0.263343758
-0.4423681502
-0.5873686953
-0.686698236
-0.7556038822
-0.7994758143
-0.8288889176
-0.8476826003
-0.8602537229
-0.8678369851
-0.8721365477
-0.8733552646
-0.8721365477
-0.8678369851
-0.8602537229
-0.8476826003
-0.8288889176
-0.7994758143
-0.7556038822
-0.686698236
-0.5873686953
-0.4423681502
-0.263343758
-0.06456192996
-0.05815369488
-0.2437967587
-0.4160732638
-0.555252908
-0.6498711776
-0.7128795586
-0.7506450078
-0.7733744897
-0.7857319626
-0.7924235694
-0.7953585531
-0.7966332888
-0.7968216815
-0.7966332888
-0.7953585531
-0.7924235694
-0.7857319626
-0.7733744897
-0.7506450078
-0.7128795586
-0.6498711776
-0.555252908
-0.4160732638
-0.2437967587
-0.05815369488
-0.05240925595
-0.2253663782
-0.3910676542
-0.5247213432
-0.6150621469
-0.6728633173
-0.7053240455
-0.7224002556
-0.7294439172
-0.7314118493
-0.7306964522
-0.7296344493
-0.7290399552
-0.7296344493
-0.7306964522
-0.7314118493
-0.7294439172
-0.7224002556
-0.7053240455
-0.6728633173
-0.6150621469
-0.5247213432
-0.3910676542
-0.2253663782
-0.05240925595
-0.04751716217
-0.2088159917
-0.3682803484
-0.4969561755
-0.5836803084
-0.6372498397
-0.6654688156
-0.6781401346
-0.6811410322
-0.6796165647
-0.6762707865
-0.6735560941
-0.6724142859