/*--------------------------------*- C++ -*----------------------------------*\
| =========                 |                                                 |
| \\      /  F ield         | OpenFOAM: The Open Source CFD Toolbox           |
|  \\    /   O peration     | Version:  2.1.x                                 |
|   \\  /    A nd           | Web:      www.OpenFOAM.org                      |
|    \\/     M anipulation  |                                                 |
\*---------------------------------------------------------------------------*/
FoamFile
{
    version     2.0;
    format      ascii;
    class       volScalarField;
    location    "3500";
    object      exact_Gw;
}
// * * * * * * * * * * * * * * * * * * * * * * * * * * * * * * * * * * * * * //

dimensions      [0 2 -3 0 0 0 0];

internalField   uniform 0;

boundaryField
{
    inlet
    {
        type            calculated;
        value           uniform 0;
    }
    outlet
    {
        type            calculated;
        value           uniform 0;
    }
    top_left
    {
        type            calculated;
        value           nonuniform List<scalar> 
250
(
9.263764143
9.788130876
9.34582246
10.45644944
11.52187475
12.12069739
12.40833559
12.52164077
12.56504405
12.57276853
12.57049242
12.56979922
12.57004652
12.56979922
12.57049242
12.57276853
12.56504405
12.52164077
12.40833559
12.12069739
11.52187475
10.45644944
9.34582246
9.788130876
9.263764143
-3.953462429
-3.569536793
-3.04160149
-2.644399361
-2.468816809
-2.412157005
-2.410966747
-2.445946215
-2.501969739
-2.566770932
-2.627345393
-2.670225094
-2.686131053
-2.670225094
-2.627345393
-2.566770932
-2.501969739
-2.445946215
-2.410966747
-2.412157005
-2.468816809
-2.644399361
-3.04160149
-3.569536793
-3.953462429
0.7388879929
-0.01242807731
-0.22387112
-0.3417762985
-0.1809881064
-0.09218287214
0.02871647424
0.1004315003
0.1781652902
0.2355017723
0.2877013733
0.320018864
0.3333700012
0.320018864
0.2877013733
0.2355017723
0.1781652902
0.1004315003
0.02871647424
-0.09218287214
-0.1809881064
-0.3417762985
-0.22387112
-0.01242807731
0.7388879929
-0.1714428032
-0.5821194644
-0.7400680681
-0.7844535868
-0.7251093169
-0.6787448832
-0.6174534378
-0.5763021493
-0.53608154
-0.5075118388
-0.4835438445
-0.4693412669
-0.4636396524
-0.4693412669
-0.4835438445
-0.5075118388
-0.53608154
-0.5763021493
-0.6174534378
-0.6787448832
-0.7251093169
-0.7844535868
-0.7400680681
-0.5821194644
-0.1714428032
0.05398942898
-0.3164375045
-0.5402819876
-0.6639088647
-0.6596216613
-0.6360046658
-0.5880810707
-0.545517646
-0.5005209768
-0.4629103841
-0.4308998814
-0.4104462816
-0.4027070202
-0.4104462816
-0.4308998814
-0.4629103841
-0.5005209768
-0.545517646
-0.5880810707
-0.6360046658
-0.6596216613
-0.6639088647
-0.5402819876
-0.3164375045
0.05398942898
-0.02846231769
-0.3115792275
-0.5267709026
-0.6304663293
-0.6488383178
-0.635156089
-0.6052093535
-0.5726056452
-0.5390638274
-0.5092755947
-0.4844037405
-0.4681151213
-0.462146856
-0.4681151213
-0.4844037405
-0.5092755947
-0.5390638274
-0.5726056452
-0.6052093535
-0.635156089
-0.6488383178
-0.6304663293
-0.5267709026
-0.3115792275
-0.02846231769
-0.008265178184
-0.2552002356
-0.4773474094
-0.597635113
-0.6364505992
-0.6333423407
-0.613128416
-0.5845436739
-0.5541527104
-0.5250673567
-0.5005791454
-0.4840516309
-0.4780944536
-0.4840516309
-0.5005791454
-0.5250673567
-0.5541527104
-0.5845436739
-0.613128416
-0.6333423407
-0.6364505992
-0.597635113
-0.4773474094
-0.2552002356
-0.008265178183
-0.01768333017
-0.2343098743
-0.4505013926
-0.5679859681
-0.615802934
-0.617715931
-0.6046430047
-0.5804571645
-0.5546098937
-0.528446753
-0.5063555633
-0.4911008862
-0.4856673863
-0.4911008862
-0.5063555633
-0.528446753
-0.5546098937
-0.5804571645
-0.6046430047
-0.617715931
-0.615802934
-0.5679859681
-0.4505013926
-0.2343098743
-0.01768333017
-0.01591661486
-0.2146865532
-0.4272275395
-0.5493530782
-0.6050834476
-0.6120035811
-0.6031736256
-0.5812660047
-0.5571874811
-0.5317880739
-0.5101206836
-0.4949056719
-0.4894914306
-0.4949056719
-0.5101206836
-0.5317880739
-0.5571874811
-0.5812660047
-0.6031736256
-0.6120035811
-0.6050834476
-0.5493530782
-0.4272275395
-0.2146865532
-0.01591661486
-0.01813902401
-0.203302515
-0.4094921048
-0.5318031311
-0.5911020962
-0.6005857421
-0.5936946245
-0.5728399627
-0.5494528714
-0.5242900402
-0.5026445322
-0.4873085326
-0.4818199801
-0.4873085326
-0.5026445322
-0.5242900402
-0.5494528714
-0.5728399627
-0.5936946245
-0.6005857421
-0.5911020962
-0.5318031311
-0.4094921048
-0.203302515
-0.01813902401
)
;
    }
    top_center
    {
        type            calculated;
        value           nonuniform List<scalar> 
750
(
-0.01967911502
-0.1955256743
-0.3960739677
-0.5192357535
-0.5805831199
-0.5915832756
-0.5845513161
-0.5630283884
-0.5383587623
-0.5119007023
-0.488983608
-0.4727456575
-0.4668859108
-0.4727456575
-0.488983608
-0.5119007023
-0.5383587623
-0.5630283884
-0.5845513161
-0.5915832756
-0.5805831199
-0.5192357535
-0.3960739677
-0.1955256743
-0.01967911502
-0.02218590103
-0.1912010972
-0.3858761902
-0.508050078
-0.5690483237
-0.5796587728
-0.5702933764
-0.5461921599
-0.518190062
-0.4887639217
-0.4632548231
-0.4453389161
-0.4388276469
-0.4453389161
-0.4632548231
-0.4887639217
-0.518190062
-0.5461921599
-0.5702933764
-0.5796587728
-0.5690483237
-0.508050078
-0.3858761902
-0.1912010972
-0.02218590103
-0.02504352651
-0.189573043
-0.3789630865
-0.4993464564
-0.5583161674
-0.566801631
-0.5526068428
-0.5232394835
-0.4890427803
-0.4543308711
-0.4246226615
-0.404240948
-0.396863434
-0.404240948
-0.4246226615
-0.4543308711
-0.4890427803
-0.5232394835
-0.5526068428
-0.566801631
-0.5583161674
-0.4993464564
-0.3789630865
-0.189573043
-0.02504352651
-0.02831537269
-0.190326908
-0.3749483692
-0.4924687302
-0.5474995818
-0.5515847531
-0.5295217971
-0.4914911272
-0.4473420511
-0.4037864314
-0.3672030354
-0.3429159167
-0.3342804302
-0.3429159167
-0.3672030354
-0.4037864314
-0.4473420511
-0.4914911272
-0.5295217971
-0.5515847531
-0.5474995818
-0.4924687302
-0.3749483692
-0.190326908
-0.02831537269
-0.03195481626
-0.193415263
-0.3741613178
-0.4882431502
-0.5376456937
-0.5346939545
-0.5006064403
-0.4476173722
-0.3844151329
-0.3211411872
-0.2687804929
-0.2360405323
-0.2250566946
-0.2360405323
-0.2687804929
-0.3211411872
-0.3844151329
-0.4476173722
-0.5006064403
-0.5346939545
-0.5376456937
-0.4882431502
-0.3741613178
-0.193415263
-0.03195481626
-0.03609215601
-0.1990076364
-0.3770016712
-0.4874116035
-0.5294872921
-0.5158095372
-0.4610042855
-0.3746734375
-0.2801328485
-0.2161742829
-0.1864450875
-0.1749892219
-0.1723446057
-0.1749892219
-0.1864450875
-0.2161742829
-0.2801328485
-0.3746734375
-0.4610042855
-0.5158095372
-0.5294872921
-0.4874116035
-0.3770016712
-0.1990076364
-0.03609215601
-0.04097245657
-0.2075749247
-0.38433978
-0.4915203448
-0.5247200083
-0.4917711985
-0.4000882436
-0.3107518045
-0.2627718594
-0.2323221061
-0.212743304
-0.2041135527
-0.202155799
-0.2041135527
-0.212743304
-0.2323221061
-0.2627718594
-0.3107518045
-0.4000882436
-0.4917711985
-0.5247200083
-0.4915203448
-0.38433978
-0.2075749247
-0.04097245657
-0.04693331114
-0.2197900742
-0.3974474342
-0.5025480415
-0.5217586968
-0.4660817164
-0.4004432765
-0.3611558304
-0.3207968572
-0.2883857747
-0.2677237215
-0.2590463555
-0.2573013035
-0.2590463555
-0.2677237215
-0.2883857747
-0.3207968572
-0.3611558304
-0.4004432765
-0.4660817164
-0.5217586968
-0.5025480415
-0.3974474342
-0.2197900742
-0.04693331114
-0.05431187523
-0.2362895316
-0.4171943013
-0.5198566517
-0.5252479664
-0.5019645837
-0.485674782
-0.4594243877
-0.423921299
-0.3902740597
-0.3653091326
-0.3530148671
-0.3500972817
-0.3530148671
-0.3653091326
-0.3902740597
-0.423921299
-0.4594243877
-0.485674782
-0.5019645837
-0.5252479664
-0.5198566517
-0.4171943013
-0.2362895316
-0.05431187523
-0.06325317667
-0.2571722101
-0.4430122203
-0.5365142222
-0.5709155063
-0.601628361
-0.6191242643
-0.6163996857
-0.5910178245
-0.5559653044
-0.5239047368
-0.5050521757
-0.4993816518
-0.5050521757
-0.5239047368
-0.5559653044
-0.5910178245
-0.6163996857
-0.6191242643
-0.601628361
-0.5709155063
-0.5365142222
-0.4430122203
-0.2571722101
-0.06325317667
-0.07359893831
-0.2817162423
-0.4711018382
-0.5807533042
-0.6503866878
-0.7372527083
-0.80446975
-0.8443001733
-0.8486654387
-0.8284815834
-0.8000636791
-0.7797833414
-0.771737304
-0.7797833414
-0.8000636791
-0.8284815834
-0.8486654387
-0.8443001733
-0.80446975
-0.7372527083
-0.6503866878
-0.5807533042
-0.4711018382
-0.2817162423
-0.07359893831
-0.08452856723
-0.3071107614
-0.4954288399
-0.6256417261
-0.7490629807
-0.8972453782
-1.037380131
-1.150529937
-1.221633883
-1.257415329
-1.27405301
-1.279367084
-1.273624029
-1.279367084
-1.27405301
-1.257415329
-1.221633883
-1.150529937
-1.037380131
-0.8972453782
-0.7490629807
-0.6256417261
-0.4954288399
-0.3071107614
-0.08452856723
-0.09476100493
-0.3296601729
-0.5199650696
-0.6680030809
-0.8427080607
-1.056329821
-1.284555677
-1.502949719
-1.690428286
-1.845112687
-1.964604574
-2.007410592
-1.976818027
-2.007410592
-1.964604574
-1.845112687
-1.690428286
-1.502949719
-1.284555677
-1.056329821
-0.8427080607
-0.6680030809
-0.5199650696
-0.3296601729
-0.09476100493
-0.1022662274
-0.3455734526
-0.5351148747
-0.6956557453
-0.9025898748
-1.168390947
-1.478011279
-1.809607806
-2.139309491
-2.445504811
-2.68256696
-2.75624127
-2.696336707
-2.75624127
-2.68256696
-2.445504811
-2.139309491
-1.809607806
-1.478011279
-1.168390947
-0.9025898748
-0.6956557453
-0.5351148747
-0.3455734526
-0.1022662274
-0.1047797922
-0.3512190293
-0.5342378833
-0.6938224644
-0.9082986172
-1.194482617
-1.548599389
-1.957499725
-2.396667501
-2.811635905
-3.132293387
-3.361463207
-3.593714136
-3.361463207
-3.132293387
-2.811635905
-2.396667501
-1.957499725
-1.548599389
-1.194482617
-0.9082986172
-0.6938224644
-0.5342378833
-0.3512190293
-0.1047797922
-0.1016190797
-0.344552654
-0.5168068793
-0.6601357069
-0.8547339485
-1.120345804
-1.45960638
-1.865331046
-2.312339955
-2.729005458
-3.042272353
-3.343657894
-3.761984446
-3.343657894
-3.042272353
-2.729005458
-2.312339955
-1.865331046
-1.45960638
-1.120345804
-0.8547339485
-0.6601357069
-0.5168068793
-0.344552654
-0.1016190797
-0.09373772181
-0.3270695261
-0.4869756629
-0.6021936434
-0.7546123499
-0.9647502857
-1.234774465
-1.557819675
-1.910970564
-2.236966665
-2.464119794
-2.605548168
-2.646105887
-2.605548168
-2.464119794
-2.236966665
-1.910970564
-1.557819675
-1.234774465
-0.9647502857
-0.7546123499
-0.6021936434
-0.4869756629
-0.3270695261
-0.09373772181
-0.08293516703
-0.3018993927
-0.4543207883
-0.5375771179
-0.6346408327
-0.773144087
-0.9498217794
-1.155559084
-1.37235561
-1.567411224
-1.700623881
-1.762109162
-1.760105393
-1.762109162
-1.700623881
-1.567411224
-1.37235561
-1.155559084
-0.9498217794
-0.773144087
-0.6346408327
-0.5375771179
-0.4543207883
-0.3018993927
-0.08293516703
-0.07128346374
-0.2731047762
-0.4240749518
-0.4806960037
-0.5227484213
-0.5922064677
-0.6834730419
-0.7860479736
-0.8876188966
-0.9721954908
-1.026168878
-1.050544246
-1.053658824
-1.050544246
-1.026168878
-0.9721954908
-0.8876188966
-0.7860479736
-0.6834730419
-0.5922064677
-0.5227484213
-0.4806960037
-0.4240749518
-0.2731047762
-0.07128346374
-0.06043782494
-0.2450285613
-0.391480074
-0.4408167002
-0.4418821261
-0.4521035494
-0.4807059843
-0.5148766164
-0.54708236
-0.5696985389
-0.579193301
-0.5805305375
-0.5795559593
-0.5805305375
-0.579193301
-0.5696985389
-0.54708236
-0.5148766164
-0.4807059843
-0.4521035494
-0.4418821261
-0.4408167002
-0.391480074
-0.2450285613
-0.06043782494
-0.05147641353
-0.2206586301
-0.3612976078
-0.4263851967
-0.4047103864
-0.3668081769
-0.3515396405
-0.3466285478
-0.3450874492
-0.3421279011
-0.3362444573
-0.3304659855
-0.3281710317
-0.3304659855
-0.3362444573
-0.3421279011
-0.3450874492
-0.3466285478
-0.3515396405
-0.3668081769
-0.4047103864
-0.4263851967
-0.3612976078
-0.2206586301
-0.05147641353
-0.04476550305
-0.2011783889
-0.3376084278
-0.4131202715
-0.4088052504
-0.3470659049
-0.2904415261
-0.2595516522
-0.2409966096
-0.2280339912
-0.2180576887
-0.2115028977
-0.2092795284
-0.2115028977
-0.2180576887
-0.2280339912
-0.2409966096
-0.2595516522
-0.2904415261
-0.3470659049
-0.4088052504
-0.4131202715
-0.3376084278
-0.2011783889
-0.04476550305
-0.04015595996
-0.1864627921
-0.3203266967
-0.40352183
-0.4214108205
-0.3780452768
-0.3025589734
-0.2379205014
-0.2017373972
-0.1808851727
-0.1678651628
-0.1605170406
-0.1582156155
-0.1605170406
-0.1678651628
-0.1808851727
-0.2017373972
-0.2379205014
-0.3025589734
-0.3780452768
-0.4214108205
-0.40352183
-0.3203266967
-0.1864627921
-0.04015595996
-0.03726073424
-0.1757825806
-0.3081260221
-0.3981133887
-0.4326609755
-0.4146409114
-0.3602425652
-0.2914992897
-0.2270603411
-0.1848036713
-0.1620750529
-0.1509060272
-0.1476232456
-0.1509060272
-0.1620750529
-0.1848036713
-0.2270603411
-0.2914992897
-0.3602425652
-0.4146409114
-0.4326609755
-0.3981133887
-0.3081260221
-0.1757825806
-0.03726073424
-0.03565738615
-0.1682387502
-0.2995757752
-0.3951843156
-0.4423480812
-0.4439944557
-0.4116549453
-0.3604662176
-0.3070378177
-0.2601656468
-0.2240673848
-0.2021672346
-0.1949476902
-0.2021672346
-0.2240673848
-0.2601656468
-0.3070378177
-0.3604662176
-0.4116549453
-0.4439944557
-0.4423480812
-0.3951843156
-0.2995757752
-0.1682387502
-0.03565738615
-0.03494467597
-0.1630175486
-0.2934932609
-0.3935176225
-0.4501279369
-0.4659604344
-0.4505799454
-0.41642641
-0.3750229293
-0.3359818195
-0.3056200982
-0.2869201328
-0.2806689128
-0.2869201328
-0.3056200982
-0.3359818195
-0.3750229293
-0.41642641
-0.4505799454
-0.4659604344
-0.4501279369
-0.3935176225
-0.2934932609
-0.1630175486
-0.03494467597
-0.03482615421
-0.1595880736
-0.28915061
-0.3924832707
-0.4561626364
-0.4822079573
-0.4786261404
-0.4569830221
-0.426894007
-0.3965423584
-0.371421213
-0.3552238906
-0.3496542722
-0.3552238906
-0.371421213
-0.3965423584
-0.426894007
-0.4569830221
-0.4786261404
-0.4822079573
-0.4561626364
-0.3924832707
-0.28915061
-0.1595880736
-0.03482615421
-0.03503163606
-0.157379564
-0.2859112143
-0.3916358792
-0.460531576
-0.4942228844
-0.4991428581
-0.4864150376
-0.4645648635
-0.4412668766
-0.4213606524
-0.4083223939
-0.4037774574
-0.4083223939
-0.4213606524
-0.4412668766
-0.4645648635
-0.4864150376
-0.4991428581
-0.4942228844
-0.460531576
-0.3916358792
-0.2859112143
-0.157379564
-0.03503163606
-0.03541027877
-0.1560152036
-0.2834820122
-0.3908718081
-0.4635281794
-0.5029099481
-0.5140377277
-0.5078107695
-0.4919517046
-0.4738420878
-0.4578425008
-0.4472364152
-0.4435002656
-0.4472364152
-0.4578425008
-0.4738420878
-0.4919517046
-0.5078107695
-0.5140377277
-0.5029099481
-0.4635281794
-0.3908718081
-0.2834820122
-0.1560152036
-0.03541027877
-0.03579847085
-0.1550764014
-0.2813912994
-0.3899749332
-0.4653267344
-0.5089583427
-0.5247220714
-0.5233767296
-0.512035249
-0.4978778709
-0.4849155622
-0.4762358277
-0.4731476283
-0.4762358277
-0.4849155622
-0.4978778709
-0.512035249
-0.5233767296
-0.5247220714
-0.5089583427
-0.4653267344
-0.3899749332
-0.2813912994
-0.1550764014
-0.03579847085
)
;
    }
    top_right
    {
        type            calculated;
        value           nonuniform List<scalar> 
250
(
-0.03614609545
-0.1544200998
-0.2795574389
-0.3890638974
-0.4663570286
-0.5130863986
-0.5321811243
-0.5343316894
-0.5262257297
-0.514911941
-0.5041483539
-0.4968644423
-0.4942526761
-0.4968644423
-0.5041483539
-0.514911941
-0.5262257297
-0.5343316894
-0.5321811243
-0.5130863986
-0.4663570286
-0.3890638974
-0.2795574389
-0.1544200998
-0.03614609545
-0.03632447567
-0.1536981
-0.2775952686
-0.3879158268
-0.466698153
-0.5158109875
-0.5375033513
-0.5423678525
-0.5367820485
-0.5276653794
-0.5186155151
-0.5124147862
-0.5101764545
-0.5124147862
-0.5186155151
-0.5276653794
-0.5367820485
-0.5423678525
-0.5375033513
-0.5158109875
-0.466698153
-0.3879158268
-0.2775952686
-0.1536981
-0.03632447567
-0.03632350994
-0.1529147278
-0.2756410643
-0.3868683143
-0.4668440029
-0.5177265467
-0.5412331131
-0.5479270634
-0.5440457698
-0.5363919697
-0.5284907725
-0.5230130187
-0.5210256393
-0.5230130187
-0.5284907725
-0.5363919697
-0.5440457698
-0.5479270634
-0.5412331131
-0.5177265467
-0.4668440029
-0.3868683143
-0.2756410643
-0.1529147278
-0.03632350994
-0.03597671407
-0.1516617313
-0.2732878204
-0.3856183083
-0.4667860811
-0.519278587
-0.544438629
-0.552785795
-0.5504671268
-0.5441304397
-0.537265373
-0.5324258828
-0.5306658541
-0.5324258828
-0.537265373
-0.5441304397
-0.5504671268
-0.552785795
-0.544438629
-0.519278587
-0.4667860811
-0.3856183083
-0.2732878204
-0.1516617313
-0.03597671407
-0.03520723568
-0.1499719923
-0.2709022006
-0.3847409896
-0.4671814505
-0.520963025
-0.5473197403
-0.5567185866
-0.5554207827
-0.5499142519
-0.5437318489
-0.5393144992
-0.5377055627
-0.5393144992
-0.5437318489
-0.5499142519
-0.5554207827
-0.5567185866
-0.5473197403
-0.520963025
-0.4671814505
-0.3847409896
-0.2709022006
-0.1499719923
-0.03520723568
-0.03375600754
-0.1472372276
-0.2680009628
-0.3837016009
-0.4678802053
-0.5232120885
-0.5512791121
-0.5622486004
-0.5625292264
-0.5583481018
-0.5532335882
-0.5494886957
-0.5481207691
-0.5494886957
-0.5532335882
-0.5583481018
-0.5625292264
-0.5622486004
-0.5512791121
-0.5232120885
-0.4678802053
-0.3837016009
-0.2680009628
-0.1472372276
-0.03375600754
-0.03101453162
-0.1429071161
-0.2649947822
-0.3832336356
-0.4697784207
-0.526725485
-0.556589261
-0.569090135
-0.5709403585
-0.5680958189
-0.5640798397
-0.5610355191
-0.5599192974
-0.5610355191
-0.5640798397
-0.5680958189
-0.5709403585
-0.569090135
-0.556589261
-0.526725485
-0.4697784207
-0.3832336356
-0.2649947822
-0.1429071161
-0.03101453162
-0.02678494899
-0.1357678807
-0.2605609807
-0.3812734818
-0.4710871838
-0.5307377411
-0.5641767971
-0.5802417856
-0.5857290619
-0.5861026806
-0.5846797236
-0.5833053631
-0.5827720049
-0.5833053631
-0.5846797236
-0.5861026806
-0.5857290619
-0.5802417856
-0.5641767971
-0.5307377411
-0.4710871838
-0.3812734818
-0.2605609807
-0.1357678807
-0.02678494899
-0.01552000444
-0.1177157472
-0.2524987866
-0.3799275837
-0.4785461213
-0.5463327201
-0.5891279463
-0.6145046821
-0.6289400346
-0.6370411725
-0.6415870208
-0.6439657058
-0.6447178926
-0.6439657058
-0.6415870208
-0.6370411725
-0.6289400346
-0.6145046821
-0.5891279463
-0.5463327201
-0.4785461213
-0.3799275837
-0.2524987866
-0.1177157472
-0.01552000444
-0.002498711143
-0.08937194936
-0.2299140059
-0.3581816264
-0.4622630138
-0.5382146871
-0.5926671187
-0.6313112076
-0.6592403743
-0.679544913
-0.6937853228
-0.7023869975
-0.7052830071
-0.7023869975
-0.6937853228
-0.679544913
-0.6592403743
-0.6313112076
-0.5926671187
-0.5382146871
-0.4622630138
-0.3581816264
-0.2299140059
-0.08937194936
-0.002498711143
)
;
    }
    down
    {
        type            calculated;
        value           nonuniform List<scalar> 
1250
(
9.31096754
9.855449482
9.419201015
10.5534786
11.66406906
12.3180358
12.66790879
12.84502721
12.94565082
12.9954861
13.01607308
13.02270959
13.02361681
13.02270959
13.01607308
12.9954861
12.94565082
12.84502721
12.66790879
12.3180358
11.66406906
10.5534786
9.419201015
9.855449482
9.31096754
-3.947113625
-3.563282143
-3.036358147
-2.642505802
-2.46181745
-2.391551973
-2.366620173
-2.369642323
-2.387341749
-2.411533631
-2.434931738
-2.451226567
-2.457358023
-2.451226567
-2.434931738
-2.411533631
-2.387341749
-2.369642323
-2.366620173
-2.391551973
-2.46181745
-2.642505802
-3.036358147
-3.563282143
-3.947113625
0.7513172994
0.003933071125
-0.2088563899
-0.3222259453
-0.1523788839
-0.0545784955
0.07137634303
0.1417246899
0.2102190687
0.2514405073
0.2843022681
0.3004771735
0.307419565
0.3004771735
0.2843022681
0.2514405073
0.2102190687
0.1417246899
0.07137634303
-0.0545784955
-0.1523788839
-0.3222259453
-0.2088563899
0.003933071125
0.7513172994
-0.1639679005
-0.5695840528
-0.7280214456
-0.7706671589
-0.7066454657
-0.6543516301
-0.5878654953
-0.5434642539
-0.5029687402
-0.4769276462
-0.4573109583
-0.4471769596
-0.4431795263
-0.4471769596
-0.4573109583
-0.4769276462
-0.5029687402
-0.5434642539
-0.5878654953
-0.6543516301
-0.7066454657
-0.7706671589
-0.7280214456
-0.5695840528
-0.1639679005
0.06124419116
-0.3037822177
-0.5281135317
-0.6503377049
-0.6428052585
-0.6158243671
-0.5666046774
-0.5257670671
-0.486254472
-0.457001802
-0.4344824187
-0.4216353187
-0.4168745611
-0.4216353187
-0.4344824187
-0.457001802
-0.486254472
-0.5257670671
-0.5666046774
-0.6158243671
-0.6428052585
-0.6503377049
-0.5281135317
-0.3037822177
0.06124419116
-0.02227787714
-0.2994181071
-0.5150312077
-0.6173571228
-0.6331429374
-0.6163215813
-0.5847883867
-0.5526319173
-0.522427165
-0.4981388148
-0.4798247569
-0.4688489209
-0.4649932194
-0.4688489209
-0.4798247569
-0.4981388148
-0.522427165
-0.5526319173
-0.5847883867
-0.6163215813
-0.6331429374
-0.6173571228
-0.5150312077
-0.2994181071
-0.02227787714
-0.002765847143
-0.2439805057
-0.4669683755
-0.5859941607
-0.6228771543
-0.6174603266
-0.5968196384
-0.5698322619
-0.5439562766
-0.5213751311
-0.5042802524
-0.4935833482
-0.4899316789
-0.4935833482
-0.5042802524
-0.5213751311
-0.5439562766
-0.5698322619
-0.5968196384
-0.6174603266
-0.6228771543
-0.5859941607
-0.4669683755
-0.2439805057
-0.002765847143
-0.01309507306
-0.2245225755
-0.4420779093
-0.5582496498
-0.6045430506
-0.6044600772
-0.5913964425
-0.5689964433
-0.5477556706
-0.5279684814
-0.51311409
-0.5035066796
-0.5003226831
-0.5035066796
-0.51311409
-0.5279684814
-0.5477556706
-0.5689964433
-0.5913964425
-0.6044600772
-0.6045430506
-0.5582496498
-0.4420779093
-0.2245225755
-0.01309507306
-0.01236000505
-0.2070704786
-0.4219046459
-0.543071442
-0.5980434781
-0.603825987
-0.5962082947
-0.5772457299
-0.5589935575
-0.5410041782
-0.5274887727
-0.5185203877
-0.5155997038
-0.5185203877
-0.5274887727
-0.5410041782
-0.5589935575
-0.5772457299
-0.5962082947
-0.603825987
-0.5980434781
-0.543071442
-0.4219046459
-0.2070704786
-0.01236000505
-0.0158202066
-0.1984906744
-0.4081994937
-0.5302378862
-0.5899080589
-0.5994785105
-0.5954261222
-0.5790987483
-0.5632033341
-0.54687103
-0.5346172981
-0.5263391714
-0.5236809308
-0.5263391714
-0.5346172981
-0.54687103
-0.5632033341
-0.5790987483
-0.5954261222
-0.5994785105
-0.5899080589
-0.5302378862
-0.4081994937
-0.1984906744
-0.0158202066
-0.01880703327
-0.1942368819
-0.399967479
-0.5242154517
-0.5878890924
-0.6011649129
-0.5997509202
-0.5855032021
-0.571201615
-0.5560614504
-0.5446564892
-0.5368679561
-0.5343778802
-0.5368679561
-0.5446564892
-0.5560614504
-0.571201615
-0.5855032021
-0.5997509202
-0.6011649129
-0.5878890924
-0.5242154517
-0.399967479
-0.1942368819
-0.01880703327
-0.0229466324
-0.1940424642
-0.3960678321
-0.5214395336
-0.5877386731
-0.6039607044
-0.6043744151
-0.5917698635
-0.5786140616
-0.5644510217
-0.5537104885
-0.5463450763
-0.543990033
-0.5463450763
-0.5537104885
-0.5644510217
-0.5786140616
-0.5917698635
-0.6043744151
-0.6039607044
-0.5877386731
-0.5214395336
-0.3960678321
-0.1940424642
-0.0229466324
-0.02761577614
-0.197161746
-0.3966227492
-0.5232387037
-0.5918243426
-0.6108931524
-0.612836176
-0.6017106226
-0.5894270772
-0.5760819948
-0.5658514572
-0.558842386
-0.5565834375
-0.558842386
-0.5658514573
-0.5760819948
-0.5894270772
-0.6017106226
-0.612836176
-0.6108931524
-0.5918243426
-0.5232387037
-0.3966227492
-0.197161746
-0.02761577614
-0.03290311561
-0.2031539991
-0.4010011987
-0.5286699333
-0.5992008296
-0.6210054062
-0.6243782817
-0.6147484283
-0.6033068294
-0.5908157141
-0.5810995009
-0.5744671466
-0.5723064138
-0.5744671466
-0.5810995009
-0.5908157141
-0.6033068294
-0.6147484283
-0.6243782817
-0.6210054062
-0.5992008296
-0.5286699333
-0.4010011987
-0.2031539991
-0.03290311561
-0.0387220912
-0.2118498042
-0.4091371546
-0.5380772251
-0.6106724662
-0.6354708249
-0.6405337924
-0.6327005146
-0.6223367596
-0.6109328954
-0.6019001681
-0.5957523906
-0.5937235044
-0.5957523906
-0.6019001681
-0.6109328954
-0.6223367596
-0.6327005146
-0.6405337924
-0.6354708249
-0.6106724662
-0.5380772251
-0.4091371546
-0.2118498042
-0.0387220912
-0.04502898922
-0.2229557873
-0.4206146169
-0.5511809348
-0.6261027514
-0.6543544528
-0.6616374088
-0.6562096764
-0.647502725
-0.6376309135
-0.6295845379
-0.6241076362
-0.6222728135
-0.6241076362
-0.6295845379
-0.6376309135
-0.647502725
-0.6562096764
-0.6616374088
-0.6543544528
-0.6261027514
-0.5511809348
-0.4206146169
-0.2229557873
-0.04502898922
-0.05176309775
-0.236234905
-0.4350803652
-0.5678659137
-0.6456255964
-0.6780586262
-0.6884287706
-0.686327885
-0.6800049822
-0.6722105961
-0.6655340366
-0.6609624457
-0.6593923074
-0.6609624457
-0.6655340366
-0.6722105961
-0.6800049822
-0.686327885
-0.6884287706
-0.6780586262
-0.6456255964
-0.5678659137
-0.4350803652
-0.236234905
-0.05176309775
-0.05879822735
-0.2512633265
-0.4519060043
-0.5876111379
-0.6688503436
-0.7063681543
-0.720962723
-0.7232135145
-0.720154792
-0.7151954021
-0.7105004036
-0.7072132106
-0.7060534248
-0.7072132106
-0.7105004036
-0.7151954021
-0.720154792
-0.7232135145
-0.720962723
-0.7063681543
-0.6688503436
-0.5876111379
-0.4519060043
-0.2512633265
-0.05879822735
-0.06593389036
-0.2674757677
-0.470276544
-0.6096394356
-0.6950771509
-0.7386979812
-0.7587384903
-0.7664456645
-0.7678012237
-0.7666917818
-0.7648007645
-0.7633232255
-0.7627453326
-0.7633232255
-0.7648007645
-0.7666917818
-0.7678012237
-0.7664456645
-0.7587384903
-0.7386979812
-0.6950771509
-0.6096394356
-0.470276544
-0.2674757677
-0.06593389036
-0.07286095009
-0.2840386884
-0.4890603386
-0.6327162695
-0.7229885724
-0.7736780097
-0.8002717066
-0.8146472251
-0.8217140699
-0.8256194898
-0.8274999689
-0.8284496475
-0.8286876438
-0.8284496475
-0.8274999689
-0.8256194898
-0.8217140699
-0.8146472251
-0.8002717066
-0.7736780097
-0.7229885724
-0.6327162695
-0.4890603386
-0.2840386884
-0.07286095009
-0.07917906672
-0.2998930703
-0.5068440709
-0.6551893945
-0.7507284316
-0.8091854754
-0.8431657401
-0.8652372277
-0.8791707656
-0.889159147
-0.895713962
-0.899683171
-0.9009460806
-0.899683171
-0.895713962
-0.889159147
-0.8791707656
-0.8652372277
-0.8431657401
-0.8091854754
-0.7507284316
-0.6551893945
-0.5068440709
-0.2998930703
-0.07917906672
-0.08441259499
-0.3137534705
-0.5219887863
-0.6750043171
-0.7758677174
-0.8422724018
-0.8839600551
-0.9141980904
-0.9356585065
-0.9523955368
-0.9642468106
-0.9716585166
-0.9741176544
-0.9716585166
-0.9642468106
-0.9523955368
-0.9356585065
-0.9141980904
-0.8839600551
-0.8422724018
-0.7758677174
-0.6750043171
-0.5219887863
-0.3137534705
-0.08441259499
-0.0880889879
-0.3242651048
-0.5328103073
-0.6899466285
-0.7956538038
-0.8694541172
-0.9185025582
-0.9564542175
-0.9852427138
-1.008596675
-1.02571431
-1.036560243
-1.040227376
-1.036560243
-1.02571431
-1.008596675
-0.9852427138
-0.9564542175
-0.9185025582
-0.8694541172
-0.7956538038
-0.6899466285
-0.5328103073
-0.3242651048
-0.0880889879
-0.08979581911
-0.3301727718
-0.537827858
-0.6979746093
-0.8074257548
-0.8872088178
-0.9424952995
-0.9867363101
-1.021454457
-1.050182585
-1.071606706
-1.085273458
-1.089930557
-1.085273458
-1.071606706
-1.050182585
-1.021454457
-0.9867363101
-0.9424952995
-0.8872088178
-0.8074257548
-0.6979746093
-0.537827858
-0.3301727718
-0.08979581911
-0.08932264619
-0.3305795596
-0.5360153338
-0.6975792287
-0.8091713371
-0.8926944096
-0.951953535
-1.000200224
-1.038628612
-1.070603218
-1.094555891
-1.109865197
-1.115100401
-1.109865197
-1.094555891
-1.070603218
-1.038628612
-1.000200224
-0.951953535
-0.8926944096
-0.8091713371
-0.6975792287
-0.5360153338
-0.3305795596
-0.08932264619
-0.08670024323
-0.3251898801
-0.5271274747
-0.6882088314
-0.8000339774
-0.8845443282
-0.9448776797
-0.9938823018
-1.032808788
-1.065006302
-1.089008906
-1.104302926
-1.109498977
-1.104302926
-1.089008906
-1.065006302
-1.032808788
-0.9938823018
-0.9448776797
-0.8845443282
-0.8000339774
-0.6882088314
-0.5271274747
-0.3251898801
-0.08670024323
-0.08225000011
-0.3144205512
-0.5116647461
-0.6703850952
-0.7805748062
-0.863328808
-0.9218111755
-0.9682944803
-1.004435078
-1.033734241
-1.055201136
-1.068763976
-1.073284264
-1.068763976
-1.055201136
-1.033734241
-1.004435078
-0.9682944803
-0.9218111755
-0.863328808
-0.7805748062
-0.6703850952
-0.5116647461
-0.3144205512
-0.08225000011
-0.07647647812
-0.2992851057
-0.4909109237
-0.6456845768
-0.7526730867
-0.8314480288
-0.8857064897
-0.9270892611
-0.9579437054
-0.9820334696
-0.9991074132
-1.009718623
-1.013156374
-1.009718623
-0.9991074132
-0.9820334696
-0.9579437054
-0.9270892611
-0.8857064897
-0.8314480288
-0.7526730867
-0.6456845768
-0.4909109237
-0.2992851057
-0.07647647812
-0.06998813336
-0.2812059191
-0.4665692323
-0.6163092159
-0.7190727075
-0.792444479
-0.8409909324
-0.8757673731
-0.8999632699
-0.9176718423
-0.9294815048
-0.9365910327
-0.9387822561
-0.9365910327
-0.9294815048
-0.9176718423
-0.8999632699
-0.8757673731
-0.8409909324
-0.792444479
-0.7190727075
-0.6163092159
-0.4665692323
-0.2812059191
-0.06998813336
-0.0633723868
-0.2617322646
-0.4404909621
-0.5846358484
-0.6827492738
-0.750195497
-0.7925350253
-0.820350319
-0.8376865267
-0.8489829184
-0.8556104535
-0.8593102901
-0.8603172007
-0.8593102901
-0.8556104535
-0.8489829184
-0.8376865267
-0.820350319
-0.7925350253
-0.750195497
-0.6827492738
-0.5846358484
-0.4404909621
-0.2617322646
-0.0633723868
-0.0571128058
-0.2422941714
-0.4143747956
-0.5528540301
-0.6464105522
-0.7081407345
-0.7445707385
-0.7659299836
-0.7770543084
-0.7826875446
-0.7848356112
-0.7856271336
-0.7856396101
-0.7856271336
-0.7848356112
-0.7826875446
-0.7770543084
-0.7659299836
-0.7445707385
-0.7081407345
-0.6464105522
-0.5528540301
-0.4143747956
-0.2422941714
-0.0571128058
-0.05153480645
-0.2240065607
-0.3895590109
-0.5226732634
-0.6121360732
-0.6688794305
-0.7002349926
-0.7161946557
-0.7222404158
-0.7233659067
-0.7220273367
-0.7205896205
-0.7198576163
-0.7205896205
-0.7220273367
-0.7233659067
-0.7222404158
-0.7161946557
-0.7002349926
-0.6688794305
-0.6121360732
-0.5226732634
-0.3895590109
-0.2240065607
-0.05153480645
-0.04681514045
-0.2076249649
-0.3669658015
-0.4952502068
-0.5812797019
-0.6340118093
-0.6613484186
-0.6731364354
-0.6753492758
-0.673166039
-0.6693347062
-0.6663317933