/*--------------------------------*- C++ -*----------------------------------*\
| =========                 |                                                 |
| \\      /  F ield         | OpenFOAM: The Open Source CFD Toolbox           |
|  \\    /   O peration     | Version:  2.1.x                                 |
|   \\  /    A nd           | Web:      www.OpenFOAM.org                      |
|    \\/     M anipulation  |                                                 |
\*---------------------------------------------------------------------------*/
FoamFile
{
    version     2.0;
    format      ascii;
    class       volScalarField;
    location    "3500";
    object      p;
}
// * * * * * * * * * * * * * * * * * * * * * * * * * * * * * * * * * * * * * //

dimensions      [0 2 -2 0 0 0 0];

internalField   nonuniform List<scalar> 
37500
(
2.18115849
1.551327993
1.392187964
1.290505205
1.213829204
1.150424602
1.095741407
1.047694979
1.004823741
0.9659297721
2.041528659
1.536087249
1.395493775
1.292209084
1.214149576
1.150193902
1.095409308
1.047446568
1.004704599
0.9659270435
1.94079524
1.530513439
1.400320843
1.294662153
1.215302136
1.150515299
1.095312558
1.047194059
1.00443455
0.9657012492
1.87603836
1.525892282
1.40328083
1.297043738
1.216895884
1.151253202
1.095460247
1.047004288
1.004090274
0.9653188548
1.826942512
1.519806805
1.404382174
1.299154176
1.218708489
1.152318835
1.095900826
1.047018114
1.003857319
0.9649742454
1.787223719
1.512823141
1.403977999
1.300735997
1.220489912
1.153583548
1.096615484
1.047297576
1.003846447
0.9647988486
1.755300012
1.50564165
1.402500658
1.301706723
1.222054156
1.154903103
1.097525746
1.047824632
1.004084345
0.9648492131
1.729907604
1.498697031
1.400379593
1.302141063
1.22331844
1.156160384
1.098531169
1.048532519
1.004539342
0.9651211724
1.709849087
1.492300075
1.39798567
1.302180495
1.224280251
1.157282903
1.099542421
1.049340958
1.00514904
0.9655726875
1.694150324
1.486654342
1.395597824
1.301972079
1.224982033
1.158241615
1.100493398
1.050174048
1.00584237
0.9661437836
1.68205373
1.481879633
1.393411228
1.301643001
1.2254809
1.159033109
1.101342895
1.050971871
1.006554556
0.9667723104
1.672987223
1.478039386
1.391559925
1.301293343
1.225833555
1.159668321
1.102068515
1.051691757
1.007232335
0.9674034007
1.666537729
1.475165113
1.390131021
1.300997949
1.226087634
1.16016439
1.102660866
1.052305475
1.007837638
0.967993523
1.66241464
1.473272052
1.389181764
1.300809181
1.226278847
1.160536197
1.103116866
1.052796523
1.008343755
0.9685103803
1.660435228
1.472365301
1.38874474
1.300759184
1.226431658
1.160794862
1.103436446
1.053154934
1.008734429
0.9689340308
2.0245356
1.467325793
1.337895057
1.254786975
1.190666381
1.136041934
1.087424814
1.043449226
1.003164412
0.9657913044
1.880997007
1.456924541
1.345301089
1.259842887
1.193657892
1.137881569
1.088655099
1.044356215
1.00388771
0.9663989099
1.778667818
1.456591045
1.353744741
1.264749836
1.196665182
1.139686101
1.089766101
1.045087026
1.004409384
0.9668027557
1.714120556
1.456019671
1.359713545
1.269200011
1.199692793
1.14151345
1.090827244
1.04569922
1.004768149
0.9670241599
1.665391477
1.452986543
1.363458552
1.273430855
1.2030203
1.143677906
1.092146825
1.046477278
1.00521916
0.9672874321
1.625677927
1.448181011
1.365200973
1.277017212
1.206361921
1.146100926
1.093763192
1.047512708
1.005875463
0.9677098447
1.593475699
1.442428884
1.365320351
1.279704341
1.209385273
1.148557227
1.095561023
1.048766593
1.00674197
0.9683218423
1.567667398
1.436346406
1.364311917
1.281511366
1.211913427
1.150849635
1.097388508
1.050140941
1.007762482
0.9690957653
1.547158849
1.430425484
1.362652938
1.282596396
1.213910924
1.152860228
1.099117855
1.05152858
1.008857281
0.9699738786
1.531034015
1.425010713
1.360726187
1.283155369
1.215425938
1.154544958
1.100665817
1.052841712
1.009947024
0.9708904563
1.518565022
1.420321646
1.358813836
1.283371826
1.216541198
1.15590701
1.101991228
1.054020292
1.010969088
0.9717863359
1.509195832
1.416489419
1.357115391
1.2833976
1.217344238
1.156973087
1.103080082
1.055029622
1.011879436
0.9726154456
1.502516685
1.413590264
1.355766049
1.283349319
1.217910682
1.157775528
1.103934123
1.055851519
1.012650253
0.973345845
1.498240677
1.411667263
1.354853821
1.2833096
1.218298441
1.158344781
1.10456069
1.056479303
1.013265673
0.9739566397
1.496185639
1.410742261
1.354431281
1.283330068
1.218546871
1.158701621
1.104967192
1.056909809
1.013716854
0.9744356306
1.968880491
1.442305651
1.323492434
1.247702064
1.188834839
1.137617712
1.091012972
1.048034325
1.008059306
0.9705774885
1.826946754
1.434165158
1.332368981
1.254000824
1.192865382
1.140291099
1.092887097
1.049421026
1.009131011
0.9714352171
1.726914355
1.436514317
1.342366411
1.260293613
1.197072093
1.143097874
1.094807116
1.050780612
1.010126283
0.9721887415
1.664235646
1.438168151
1.349783485
1.266193034
1.201395695
1.146029743
1.096778132
1.052115414
1.011041207
0.9728292919
1.61690802
1.43696781
1.354886995
1.271898327
1.20609471
1.14939324
1.099101906
1.053701745
1.012123164
0.9735762102
1.578258379
1.433659535
1.357833137
1.276861395
1.210765814
1.153019635
1.101754221
1.055590492
1.013459516
0.9745308291
1.546864174
1.429105773
1.358968158
1.280751859
1.214985589
1.156593384
1.104543397
1.057685002
1.015015206
0.9756971196
1.521662471
1.423965654
1.358790587
1.283566936
1.218536325
1.159863126
1.107260418
1.059836019
1.016692786
0.9770164373
1.50160629
1.418775237
1.357796083
1.285472459
1.221376594
1.162691694
1.109748204
1.061902551
1.018379444
0.978402003
1.485814999
1.413919153
1.356390281
1.286683947
1.223567015
1.165038003
1.111917368
1.063782911
1.019977072
0.9797677456
1.473590016
1.409649461
1.354878011
1.287407388
1.225209937
1.166919352
1.113734126
1.065417153
1.021416863
0.9810440392
1.464395173
1.406123971
1.353477665
1.287815793
1.226412436
1.168379742
1.115198069
1.066778872
1.022657451
0.9821826625
1.457835994
1.403439328
1.352340293
1.288042182
1.227266912
1.169467796
1.11632538
1.067861052
1.02367777
0.9831541919
1.453635649
1.401652644
1.35156512
1.288181331
1.227843905
1.170225798
1.117134949
1.068666736
1.024469343
0.9839422896
1.451619177
1.400795563
1.351211801
1.288293369
1.228190312
1.170683171
1.117642475
1.069200754
1.025029459
0.9845389853
1.925405241
1.409965663
1.298848592
1.230535412
1.177912944
1.131678866
1.088911881
1.048752618
1.010738448
0.9745307119
1.782920666
1.401240307
1.307165815
1.236413574
1.181611755
1.134103483
1.090604713
1.050007732
1.011712777
0.9753133634
1.682144079
1.402958127
1.316634652
1.242401984
1.185607083
1.13678036
1.092465443
1.051361623
1.012737496
0.9761153238
1.618984975
1.404291529
1.323785753
1.248231324
1.189927292
1.139766086
1.094543232
1.052846534
1.013831232
0.9769474337
1.571436072
1.403010298
1.32883903
1.254055206
1.194788763
1.143324259
1.097091959
1.054686128
1.015187642
0.9779787565
1.532730071
1.399760763
1.331873437
1.259261283
1.199738483
1.14724479
1.100048426
1.056891471
1.016852654
0.9792697322
1.501375503
1.39533895
1.333170459
1.263455017
1.204297628
1.151168594
1.103185328
1.059332643
1.018758696
0.9807912817
1.476263958
1.390363572
1.333183734
1.26658567
1.208203169
1.154804548
1.106260729
1.061832822
1.020782971
0.9824598251
1.456320168
1.385343669
1.332381384
1.268791113
1.211382568
1.157986016
1.109093044
1.064231383
1.022794624
0.9841723013
1.440644427
1.380648662
1.331153864
1.270270731
1.213878405
1.16065356
1.111576853
1.066413459
1.024686142
0.9858329505
1.428526237
1.376520527
1.329797036
1.271223245
1.215784065
1.162813798
1.113668725
1.06831217
1.026383446
0.9873689061
1.419422909
1.373112416
1.32852519
1.27181817
1.217201828
1.164505224
1.11536296
1.069897241
1.027843421
0.988731589
1.412936015
1.370518239
1.327486843
1.272187332
1.218222213
1.165773846
1.11667296
1.071159827
1.029044728
0.9898923817
1.4087864
1.368794297
1.326780637
1.272425125
1.218915437
1.166660421
1.117616107
1.072102076
1.029979062
0.9908365023
1.406798404
1.367971462
1.32646582
1.272591987
1.219327962
1.167193914
1.118207586
1.072728506
1.030643937
0.9915569797
1.898601297
1.390592554
1.284817539
1.221564523
1.173171859
1.130327533
1.090163905
1.051906704
1.015206752
0.9798485301
1.756125151
1.382134718
1.293324035
1.227597319
1.176974912
1.132811592
1.091880371
1.05315567
1.016150314
0.9805805159
1.655263445
1.384060082
1.302963113
1.233795554
1.181149732
1.135631145
1.093849358
1.054587627
1.017227376
0.9814134385
1.592092281
1.38561774
1.310302148
1.239875634
1.185715047
1.13884046
1.096121983
1.056238732
1.018462064
0.982365919
1.544629733
1.384598135
1.315580275
1.245991021
1.19087293
1.142682018
1.098927643
1.058305527
1.020018248
0.9835754576
1.506069525
1.381626342
1.318864839
1.251513477
1.196150414
1.146923625
1.102180774
1.060776995
1.021920839
0.9850814416
1.474888042
1.377479908
1.320417919
1.256024333
1.201042908
1.151180293
1.105630913
1.063503148
1.024084488
0.9868385341
1.449957557
1.372765865
1.320678097
1.259454354
1.205265655
1.155138166
1.109014861
1.066288705
1.026370079
0.9887499268
1.430189376
1.367985186
1.320103906
1.261930955
1.208732594
1.15861526
1.112134969
1.068958328
1.028634632
0.9907014691
1.414675207
1.363501653
1.319079455
1.263648115
1.211479777
1.161543476
1.114876331
1.071387492
1.030761563
0.9925901874
1.402698033
1.359554023
1.317897084
1.264802297
1.213598286
1.163925618
1.117190492
1.073504073
1.03267157
0.9943380156
1.3937119
1.35629278
1.316768435
1.265561619
1.215189574
1.165799369
1.119070256
1.075274908
1.034318512
0.9958936437
1.38731593
1.353810935
1.315840761
1.266057576
1.216344366
1.16721079
1.120528403
1.07669049
1.035679851
0.9972266444
1.38322979
1.352164579
1.315211734
1.266384214
1.217133191
1.16820098
1.121582724
1.077752711
1.03674638
0.9983214926
1.381277177
1.351384162
1.314940296
1.266601971
1.21760256
1.168799454
1.122248654
1.078466185
1.037515712
0.9991708303
1.878728152
1.373663316
1.270864766
1.211052069
1.165929167
1.126022055
1.088379963
1.052201763
1.017157309
0.9830761498
1.73613681
1.36509255
1.279243376
1.216966423
1.169609358
1.128381717
1.089975025
1.05333463
1.017990826
0.9837035485
1.635056122
1.366786745
1.288669879
1.223016288
1.173655565
1.131084607
1.091837447
1.054670539
1.01898299
0.9844619614
1.571698652
1.368135154
1.295798265
1.228953899
1.178115327
1.134214692
1.09404879
1.056274863
1.020185376
0.9853958236
1.524115544
1.366966404
1.300911358
1.234961381
1.183202529
1.138016281
1.09683526
1.058338104
1.021753187
0.9866319379
1.485489615
1.363902335
1.304087619
1.24042327
1.188452088
1.142259422
1.100109346
1.060845234
1.023705142
0.9882024628
1.454283965
1.359709597
1.305580607
1.244913954
1.193353934
1.146552612
1.103613784
1.063639334
1.025949134
0.9900548939
1.429359763
1.354983
1.305817269
1.248352982
1.197610548
1.150569845
1.107074715
1.066514887
1.028337068
0.9920843362
1.409617432
1.350214083
1.305244683
1.250856682
1.201125264
1.15411809
1.110282867
1.069286169
1.030716962
0.9941680471
1.394140516
1.345756487
1.304237929
1.252611489
1.203926511
1.157120524
1.113114918
1.071820466
1.032964045
0.9961961806
1.382204763
1.341842305
1.303082044
1.253807435
1.206099754
1.159574815
1.11551673
1.074039741
1.034993631
0.9980855405
1.373259051
1.338615812
1.301983164
1.254608351
1.207742981
1.161515285
1.117477686
1.075907356
1.036756052
0.9997808202
1.366898353
1.336165665
1.301084039
1.255142212
1.208944139
1.162985741
1.119008615
1.077411851
1.03822643
1.001249939
1.362839885
1.334544942
1.300479362
1.255500227
1.209771857
1.164025917
1.120126261
1.078553949
1.039394629
1.002475827
1.360905553
1.333782126
1.300226096
1.255741594
1.210271376
1.164664494
1.12084505
1.079337566
1.040257435
1.003450396
1.864565101
1.361498861
1.260935059
1.203671678
1.161000625
1.123321814
1.087615352
1.053056443
1.019325466
0.9862828968
1.721937897
1.352955126
1.269354277
1.209634723
1.164720558
1.125708226
1.089224313
1.054190904
1.020149058
0.9868894266
1.620761839
1.354608173
1.278771879
1.215716012
1.168805268
1.128446104
1.09111298
1.055542875
1.021147596
0.9876453334
1.557318642
1.355906324
1.285867153
1.221662916
1.173295064
1.131615718
1.093363892
1.057182175
1.022379814
0.9886044686
1.509682048
1.354707701
1.290954649
1.227680341
1.17841555
1.135466492
1.096205499
1.059300443
1.024001231
0.9898930307
1.471031169
1.351636697
1.294125226
1.233165869
1.183710389
1.139772573
1.099551498
1.061883017
1.026029441
0.9915420934
1.439822521
1.347455469
1.295630984
1.237693807
1.188669485
1.144141171
1.103142283
1.064769385
1.028369603
0.993496146
1.414911355
1.342754327
1.295894124
1.24117947
1.192990023
1.14824084
1.106697953
1.067748317
1.030868256
0.9956452456
1.395193142
1.338019552
1.295356538
1.243734447
1.196570835
1.15187244
1.110003003
1.070627576
1.033366599
0.9978610389
1.379746058
1.333600717
1.294389213
1.245541363
1.199436434
1.154954666
1.112929103
1.073268839
1.035734553
1.00002752
1.367842218
1.329725701
1.29327329
1.246787474
1.201669712
1.157483012
1.11541859
1.075590358
1.037883051
1.002057321
1.358927245
1.326535854
1.292212024
1.247634107
1.20336704
1.159489718
1.117459442
1.077553299
1.039759943
1.003892017
1.352593652
1.324117551
1.291345967
1.248207619
1.204615147
1.161018064
1.119061404
1.079145272
1.041338734
1.00549783
1.348557055
1.322521849
1.290767975
1.248597998
1.205481622
1.162107194
1.12024102
1.080366324
1.042608847
1.006856789
1.346638045
1.321776438
1.290534042
1.248863165
1.206011385
1.162785435
1.121012445
1.081220426
1.043566576
1.007960142
1.853975259
1.351889511
1.252664676
1.197077326
1.156143149
1.120150403
1.086000541
1.052824978
1.020288443
0.9882552367
1.711310169
1.343319599
1.261062511
1.203023032
1.159842447
1.122511597
1.087580798
1.053928037
1.02107846
0.9888260104
1.610051364
1.344886785
1.270408914
1.209057873
1.163889775
1.125215844
1.089436718
1.055247566
1.022045006
0.9895505862
1.546525977
1.346089016
1.277409309
1.21493383
1.168327118
1.128347396
1.091657979
1.056863058
1.023258351
0.9904956132
1.498824341
1.344808004
1.282405592
1.22087702
1.173392364
1.132161738
1.094476914
1.058969264
1.024877005
0.9917905439
1.460125596
1.341673319
1.285502031
1.226300223
1.178641861
1.136441229
1.097812823
1.061555307
1.026920916
0.9934688149
1.428884592
1.33744632
1.286953188
1.230782845
1.183569586
1.140797155
1.101407938
1.064461528
1.029295996
0.9954746598
1.40395411
1.332715059
1.287178877
1.234238399
1.18787257
1.144896784
1.104981
1.067474707
1.031846738
0.9976956339
1.384227058
1.32796247
1.28661824
1.236776214
1.191446746
1.148538118
1.108313043
1.070399047
1.034409979
0.9999995455
1.368778719
1.323535849
1.285638598
1.238575808
1.194314207
1.151636792
1.111272588
1.073092515
1.036851788
1.002266122
1.356879008
1.319659835
1.28451877
1.23982214
1.196555367
1.15418643
1.113799264
1.075470464
1.039079687
1.004404098
1.347971298
1.316473788
1.283459325
1.240674486
1.198265181
1.156217433
1.115879906
1.077492135
1.041039355
1.006352666
1.341646693
1.31406221
1.282599194
1.241257361
1.199529075
1.157772431
1.117522949
1.079144263
1.042703095
1.008076294
1.337619573
1.312474671
1.282029683
1.241659873
1.200413675
1.158889722
1.118744644
1.080426206
1.044059586
1.009556147
1.335709716
1.311738248
1.281805871
1.241938944
1.200963269
1.159597253
1.119558892
1.08134183
1.045104922
1.010783284
1.846227442
1.344803794
1.246553339
1.192193923
1.152559112
1.117847392
1.084898384
1.052806897
1.021222131
0.9900084108
1.703542242
1.336232303
1.254960904
1.198156888
1.156275287
1.120222649
1.086489093
1.05391625
1.022013853
0.9905758461
1.60223445
1.337759456
1.264285576
1.204190645
1.160330661
1.122938177
1.088356063
1.05524477
1.022986527
0.9913033031
1.538658509
1.33891128
1.271243979
1.210044185
1.164761268
1.126073914
1.090587203
1.056872724
1.024213392
0.9922624543
1.490915326
1.337585711
1.276196834
1.215958127
1.169813225
1.129889369
1.093417616
1.058997403
1.025855876
0.9935860867
1.452184897
1.334416825
1.279257698
1.221356424
1.175051787
1.134173234
1.096770549
1.061610476
1.02793626
0.9953099428
1.420921634
1.330165604
1.280683584
1.225822281
1.179974722
1.138539661
1.100389921
1.06455374
1.030360309
0.9973786971
1.395977076
1.325418814
1.280893742
1.229269194
1.184279911
1.142655751
1.10399404
1.067612499
1.032971719
0.9996778074
1.376242526
1.320658272
1.280325345
1.231805097
1.187861695
1.146318382
1.107362202
1.070588696
1.035604484
1.00207211
1.360791769
1.316229273
1.279344075
1.233608144
1.190741018
1.149441412
1.11036064
1.073337925
1.038121749
1.004438374
1.348893562
1.312355125
1.278227045
1.234861832
1.1929969
1.152017228
1.112927917
1.075773586
1.040428552
1.006682301
1.339989993
1.309173803
1.277173714
1.235724296
1.194723462
1.15407561
1.115049542
1.077853793
1.042469107
1.008740976
1.333671205
1.306768815
1.276321635
1.236319098
1.196005405
1.155658456
1.116733703
1.079564536
1.044214706
1.010577739
1.329650942
1.305188938
1.275761419
1.236734662
1.196908919
1.156803856
1.117996295
1.080904956
1.045653687
1.012173131
1.327748599
1.304460512
1.275547684
1.237027405
1.197477862
1.15753948
1.118851086
1.08187874
1.046781973
1.013517929
1.840644294
1.339598356
1.241963006
1.188409253
1.149661784
1.115856219
1.083786364
1.052515649
1.021676454
0.9911273031
1.697943511
1.331018598
1.250367944
1.194373217
1.153377514
1.118228908
1.085372259
1.053617899
1.022458801
0.9916827459
1.596600195
1.33250939
1.259665365
1.200391178
1.157422632
1.120936486
1.087231723
1.054938514
1.023422966
0.9924009151
1.53298629
1.333616535
1.266581183
1.206212158
1.161830613
1.124057671
1.089453397
1.056560572
1.024646665
0.9933596764
1.485209758
1.332249815
1.271489302
1.212087805
1.166853945
1.127855151
1.092274453
1.058683464
1.026293761
0.9946946286
1.446452382
1.329046453
1.27451102
1.217450723
1.172065425
1.132123205
1.095622141
1.061301257
1.028388778
0.9964436738
1.41516776
1.324767956
1.275905964
1.221887733
1.17696704
1.136478877
1.099242716
1.06425753
1.030838642
0.9985522089
1.390207562
1.320000908
1.276092717
1.225313402
1.181257256
1.140590646
1.102854624
1.067337486
1.033486273
1.000905225
1.370462307
1.315225842
1.275507957
1.22783469
1.184830387
1.144254562
1.10623662
1.070341922
1.036164153
1.003365446
1.355004925
1.310787496
1.274516137
1.229629125
1.187706394
1.147383788
1.109253488
1.073124783
1.038733573
1.005807148
1.343103431
1.306908221
1.273393358
1.230879035
1.189963608
1.149969704
1.111843036
1.075598034
1.041097865
1.008133774
1.334199389
1.303725066
1.272338351
1.231741841
1.191695348
1.152041618
1.113989916
1.077719242
1.043199675
1.010281084
1.327882408
1.301321174
1.271487777
1.232340559
1.192985862
1.153641063
1.115702023
1.079473442
1.04501005
1.012211133
1.32386581
1.299744634
1.270931992
1.232762994
1.19390099
1.154805698
1.116995028
1.080859915
1.046516627
1.013904256
1.321968689
1.29902161
1.270725026
1.233065364
1.19448433
1.155563246
1.117882532
1.081882036
1.047715441
1.015350904
1.836889564
1.336085386
1.238857819
1.185843317
1.147698806
1.114516821
1.083059006
1.052366262
1.022057753
0.9919871782
1.694179591
1.327503106
1.247265493
1.191813798
1.151421168
1.116895431
1.0846496
1.053471602
1.022841231
0.9925413192
1.592814687
1.32897359
1.25655045
1.197828023
1.155467435
1.119606598
1.086513405
1.054796302
1.023808779
0.9932617148
1.529177224
1.330054636
1.263443267
1.203633899
1.159867929
1.122726613
1.088737865
1.056423783
1.025039646
0.9942292381
1.481379741
1.328663546
1.268326388
1.209490112
1.16487908
1.126520235
1.091561591
1.058554793
1.026699301
0.995581511
1.44260522
1.325439677
1.271326313
1.214834437
1.170079125
1.130784964
1.094914125
1.061184875
1.028813849
0.9973578279
1.411306725
1.321145054
1.272704135
1.219256652
1.174972094
1.135140181
1.098543061
1.064158564
1.031290818
0.9995039668
1.386336313
1.316365853
1.272878201
1.222671929
1.179257268
1.139255026
1.102167278
1.067260899
1.033972557
1.001904528
1.366583694
1.311582384
1.272284988
1.22518683
1.182828947
1.142925046
1.105564906
1.070292134
1.036690329
1.004420707
1.351121685
1.30713871
1.271288142
1.226978351
1.185706442
1.146063173
1.108600131
1.073105083
1.039304132
1.006924873
1.339217852
1.303256708
1.270163286
1.22822819
1.187967846
1.1486602
1.111210102
1.075610584
1.041716073
1.009318922
1.330313405
1.300073042
1.269108554
1.229093477
1.189705986
1.150745024
1.11337896
1.077765936
1.043867914
1.011537619
1.323997647
1.29767049
1.268260317
1.229696581
1.191004862
1.152359005
1.115114533
1.079555593
1.045730345
1.013542319
1.3199837
1.296096763
1.267708627
1.230125269
1.191930084
1.153539683
1.116432153
1.0809789
1.047290776
1.015312893
1.318090522
1.295378058
1.267507146
1.230435486
1.192525
1.154314616
1.117345625
1.082039112
1.048545068
1.016839914
1.834716626
1.334037569
1.237030323
1.184311348
1.146502836
1.113674096
1.082568503
1.052214079
1.022221356
0.9924407757
1.692001167
1.325452708
1.245437859
1.190283195
1.15022617
1.116052931
1.084158315
1.053317614
1.023001803
0.9929905661
1.590623648
1.326910298
1.254713648
1.196292297
1.154269625
1.118762208
1.086020398
1.054640413
1.023966991
0.9937081438
1.526972401
1.327975115
1.261591107
1.202086247
1.158662128
1.121877292
1.088242174
1.056266749
1.025197893
0.9946769897
1.479162427
1.326568547
1.266457694
1.207927715
1.163662604
1.125664322
1.091063115
1.058398097
1.026861024
0.9960358961
1.440377338
1.323331494
1.269442688
1.213258309
1.168851977
1.129922892
1.09441423
1.061031079
1.028983541
0.997825203
1.409070353
1.319026091
1.270808326
1.217669053
1.173736208
1.134273886
1.098044032
1.064011217
1.031473129
0.9999911775
1.384093212
1.314238443
1.270973108
1.221075633
1.178015112
1.138386922
1.10167179
1.06712373
1.034172204
1.002417993
1.364335568
1.309448843
1.270373121
1.223584379
1.181583085
1.142057494
1.105075604
1.070167929
1.03691154
1.004966178
1.34887013
1.305000937
1.269371746
1.225372106
1.184459126
1.145198223
1.108119099
1.072996546
1.039550175
1.007506969
1.336964388
1.301116258
1.268244382
1.226620273
1.186721
1.147799827
1.110739293
1.075519687
1.041989619
1.009941382
1.328059273
1.297931579
1.267188703
1.22748571
1.188461465
1.14989086
1.112919854
1.077694322
1.044171112
1.012203539
1.321743883
1.295529243
1.266341176
1.228090499
1.189764328
1.151512463
1.114668664
1.07950489
1.046064999
1.01425432
1.317731313
1.293956927
1.265791416
1.228522509
1.190694931
1.152702357
1.116000847
1.080950466
1.047658699
1.016073443
1.315840494
1.293240655
1.265593146
1.228837234
1.19129688
1.153487779
1.116930254
1.082034356
1.048947931
1.017651471
1.834007167
1.33337003
1.236436627
1.183816768
1.146121566
1.113412344
1.08242613
1.052186317
1.022300641
0.992618151
1.691290091
1.324784811
1.244844878
1.1897901
1.149846582
1.115792862
1.084017517
1.053291221
1.023082101
0.9931685329
1.5899087
1.326238783
1.254118598
1.195798809
1.153890796
1.11850348
1.085881224
1.054615808
1.024048961
0.9938876498
1.526253093
1.327298924
1.260992052
1.201590182
1.158282352
1.121619016
1.088104319
1.056244146
1.025282484
0.9948593657
1.478439358
1.325887868
1.265854238
1.207427998
1.163281095
1.125405953
1.090926495
1.058377957
1.026949496
0.9962229624
1.439651043
1.322647078
1.268835133
1.212755516
1.168468558
1.12966447
1.094279458
1.061014309
1.029077046
0.9980192575
1.40834158
1.318338572
1.270197651
1.217163718
1.173351514
1.134015735
1.097911779
1.063998856
1.031573185
1.000194319
1.383362312
1.313548751
1.270360041
1.220568562
1.177629659
1.138129799
1.101542571
1.067117018
1.03428014
1.002632065
1.363603205
1.308757473
1.269758556
1.223076147
1.181197615
1.141802139
1.104950171
1.070167335
1.037028614
1.005193098
1.348136802
1.30430853
1.268756221
1.224863462
1.184074297
1.144944976
1.107997822
1.073002803
1.039677241
1.007747896
1.336230536
1.300423235
1.267628563
1.226111769
1.186337161
1.147549146
1.11062267
1.075533177
1.042127404
1.010197409
1.327325283
1.297238489
1.266572915
1.226977785
1.188079155
1.149643153
1.112808117
1.077715392
1.044320014
1.012475506
1.321010095
1.294836375
1.265725942
1.227583615
1.18938388
1.151267977
1.114562119
1.079533839
1.046225457
1.014542779
1.316998046
1.293264665
1.265177071
1.228017012
1.190316615
1.152461416
1.115899726
1.080987534
1.047830984
1.016379073
1.315108045
1.292549292
1.264979957
1.228333419
1.190921189
1.153250627
1.116834775
1.082079701
1.049132479
1.017974824
1.834716626
1.334037569
1.237030323
1.184311348
1.146502836
1.113674096
1.082568503
1.052214079
1.022221356
0.9924407757
1.692001167
1.325452708
1.245437859
1.190283195
1.15022617
1.116052931
1.084158315
1.053317614
1.023001803
0.9929905661
1.590623648
1.326910298
1.254713648
1.196292297
1.154269625
1.118762208
1.086020398
1.054640413
1.023966991
0.9937081438
1.526972401
1.327975115
1.261591107
1.202086247
1.158662128
1.121877292
1.088242174
1.056266749
1.025197893
0.9946769897
1.479162427
1.326568547
1.266457694
1.207927715
1.163662604
1.125664322
1.091063115
1.058398097
1.026861024
0.9960358961
1.440377338
1.323331494
1.269442688
1.213258309
1.168851977
1.129922892
1.09441423
1.061031079
1.028983541
0.997825203
1.409070353
1.319026091
1.270808326
1.217669053
1.173736208
1.134273886
1.098044032
1.064011217
1.031473129
0.9999911775
1.384093212
1.314238443
1.270973108
1.221075633
1.178015112
1.138386922
1.10167179
1.06712373
1.034172204
1.002417993
1.364335568
1.309448843
1.270373121
1.223584379
1.181583085
1.142057494
1.105075604
1.070167929
1.03691154
1.004966178
1.34887013
1.305000937
1.269371746
1.225372106
1.184459126
1.145198223
1.108119099
1.072996546
1.039550175
1.007506969
1.336964388
1.301116258
1.268244382
1.226620273
1.186721
1.147799827
1.110739293
1.075519687
1.041989619
1.009941382
1.328059273
1.297931579
1.267188703
1.22748571
1.188461465
1.14989086
1.112919854
1.077694322
1.044171112
1.012203539
1.321743883
1.295529243
1.266341176
1.228090499
1.189764328
1.151512463
1.114668664
1.07950489
1.046064999
1.01425432
1.317731313
1.293956927
1.265791416
1.228522509
1.190694931
1.152702357
1.116000847
1.080950466
1.047658699
1.016073443
1.315840494
1.293240655
1.265593146
1.228837234
1.19129688
1.153487779
1.116930254
1.082034356
1.048947931
1.017651471
1.836889564
1.336085386
1.238857819
1.185843317
1.147698806
1.114516821
1.083059006
1.052366262
1.022057753
0.9919871782
1.694179591
1.327503106
1.247265493
1.191813798
1.151421168
1.116895431
1.0846496
1.053471602
1.022841231
0.9925413192
1.592814687
1.32897359
1.25655045
1.197828023
1.155467435
1.119606598
1.086513405
1.054796302
1.023808779
0.9932617148
1.529177224
1.330054636
1.263443267
1.203633899
1.159867929
1.122726613
1.088737865
1.056423783
1.025039646
0.9942292381
1.481379741
1.328663546
1.268326388
1.209490112
1.16487908
1.126520235
1.091561591
1.058554793
1.026699301
0.995581511
1.44260522
1.325439677
1.271326313
1.214834437
1.170079125
1.130784964
1.094914125
1.061184875
1.028813849
0.9973578279
1.411306725
1.321145054
1.272704135
1.219256652
1.174972094
1.135140181
1.098543061
1.064158564
1.031290818
0.9995039668
1.386336313
1.316365853
1.272878201
1.222671929
1.179257268
1.139255026
1.102167278
1.067260899
1.033972557
1.001904528
1.366583694
1.311582384
1.272284988
1.22518683
1.182828947
1.142925046
1.105564906
1.070292134
1.036690329
1.004420707
1.351121685
1.30713871
1.271288142
1.226978351
1.185706442
1.146063173
1.108600131
1.073105083
1.039304132
1.006924873
1.339217852
1.303256708
1.270163286
1.22822819
1.187967846
1.1486602
1.111210102
1.075610584
1.041716073
1.009318922
1.330313405
1.300073042
1.269108554
1.229093477
1.189705986
1.150745024
1.11337896
1.077765936
1.043867914
1.011537619
1.323997647
1.29767049
1.268260317
1.229696581
1.191004862
1.152359005
1.115114533
1.079555593
1.045730345
1.013542319
1.3199837
1.296096763
1.267708627
1.230125269
1.191930084
1.153539683
1.116432153
1.0809789
1.047290776
1.015312893
1.318090522
1.295378058
1.267507146
1.230435486
1.192525
1.154314616
1.117345625
1.082039112
1.048545068
1.016839914
1.840644294
1.339598356
1.241963006
1.188409253
1.149661784
1.115856219
1.083786364
1.052515649
1.021676454
0.9911273031
1.697943511
1.331018598
1.250367944
1.194373217
1.153377514
1.118228908
1.085372259
1.053617899
1.022458801
0.9916827459
1.596600195
1.33250939
1.259665365
1.200391178
1.157422632
1.120936486
1.087231723
1.054938514
1.023422966
0.9924009151
1.53298629
1.333616535
1.266581183
1.206212158
1.161830613
1.124057671
1.089453397
1.056560572
1.024646665
0.9933596764
1.485209758
1.332249815
1.271489302
1.212087805
1.166853945
1.127855151
1.092274453
1.058683464
1.026293761
0.9946946286
1.446452382
1.329046453
1.27451102
1.217450723
1.172065425
1.132123205
1.095622141
1.061301257
1.028388778
0.9964436738
1.41516776
1.324767956
1.275905964
1.221887733
1.17696704
1.136478877
1.099242716
1.06425753
1.030838642
0.9985522089
1.390207562
1.320000908
1.276092717
1.225313402
1.181257256
1.140590646
1.102854624
1.067337486
1.033486273
1.000905225
1.370462307
1.315225842
1.275507957
1.22783469
1.184830387
1.144254562
1.10623662
1.070341922
1.036164153
1.003365446
1.355004925
1.310787496
1.274516137
1.229629125
1.187706394
1.147383788
1.109253488
1.073124783
1.038733573
1.005807148
1.343103431
1.306908221
1.273393358
1.230879035
1.189963608
1.149969704
1.111843036
1.075598034
1.041097865
1.008133774
1.334199389
1.303725066
1.272338351
1.231741841
1.191695348
1.152041618
1.113989916
1.077719242
1.043199675
1.010281084
1.327882408
1.301321174
1.271487777
1.232340559
1.192985862
1.153641063
1.115702023
1.079473442
1.04501005
1.012211133
1.32386581
1.299744634
1.270931992
1.232762994
1.19390099
1.154805698
1.116995028
1.080859915
1.046516627
1.013904256
1.321968689
1.29902161
1.270725026
1.233065364
1.19448433
1.155563246
1.117882532
1.081882036
1.047715441
1.015350904
1.846227442
1.344803794
1.246553339
1.192193923
1.152559112
1.117847392
1.084898384
1.052806897
1.021222131
0.9900084108
1.703542242
1.336232303
1.254960904
1.198156888
1.156275287
1.120222649
1.086489093
1.05391625
1.022013853
0.9905758461
1.60223445
1.337759456
1.264285576
1.204190645
1.160330661
1.122938177
1.088356063
1.05524477
1.022986527
0.9913033031
1.538658509
1.33891128
1.271243979
1.210044185
1.164761268