/*--------------------------------*- C++ -*----------------------------------*\
| =========                 |                                                 |
| \\      /  F ield         | OpenFOAM: The Open Source CFD Toolbox           |
|  \\    /   O peration     | Version:  2.1.x                                 |
|   \\  /    A nd           | Web:      www.OpenFOAM.org                      |
|    \\/     M anipulation  |                                                 |
\*---------------------------------------------------------------------------*/
FoamFile
{
    version     2.0;
    format      ascii;
    class       volScalarField;
    location    "3500";
    object      pa;
}
// * * * * * * * * * * * * * * * * * * * * * * * * * * * * * * * * * * * * * //

dimensions      [0 2 -2 0 0 0 0];

internalField   nonuniform List<scalar> 
37500
(
1.329987546
-0.1944658333
0.3508360818
0.2111578194
0.3172292891
0.323959505
0.3605047497
0.3791200474
0.3985484223
0.4126761942
1.255815799
-0.1134730267
0.3599568599
0.2216639328
0.3255927493
0.3306339919
0.3667051968
0.3846819829
0.4038423779
0.4177797041
1.287251973
-0.07786469688
0.3850925727
0.2391119554
0.3383944136
0.3404164656
0.3751835426
0.3921847049
0.4107996487
0.4243426464
1.313810497
-0.04284930536
0.4190633827
0.2625018128
0.3569017228
0.3545522205
0.3871044964
0.4024771818
0.42002567
0.4327508103
1.302697369
-0.001480062187
0.450044848
0.2888735779
0.3783520134
0.3721337822
0.4019821422
0.4154056362
0.4314735762
0.4430308049
1.261989867
0.03854586134
0.4740884305
0.3151764362
0.3998651083
0.3911911636
0.4183501025
0.4298915156
0.4442962923
0.4545057984
1.207286662
0.07103099118
0.4916214865
0.3397748905
0.4198989348
0.4101490762
0.4348614101
0.4447840399
0.4575248079
0.4663542792
1.150123058
0.09397541002
0.5041425343
0.361941801
0.4379244891
0.4280785616
0.4506072102
0.4591947469
0.4703585779
0.4778610428
1.097574118
0.1080700899
0.5130052474
0.3813430403
0.4538423724
0.444495094
0.465075003
0.4725494964
0.4822469862
0.4885111847
1.05321911
0.1152473477
0.5192054142
0.397817271
0.4676242429
0.4590849565
0.4779473079
0.4844782849
0.4928318251
0.497961395
1.018282667
0.1177405492
0.5234620769
0.4113232595
0.4792121677
0.4715954421
0.4889907823
0.4947186364
0.5018675063
0.5059793569
0.9925075864
0.1175766994
0.5263048539
0.4219102017
0.4885304229
0.4818011175
0.4979999914
0.5030540704
0.5091644548
0.5123947709
0.9748607497
0.1162844038
0.5280997119
0.4296670463
0.4954968101
0.489499837
0.5047728157
0.5092835898
0.5145490626
0.5170508977
0.9640811042
0.1149238663
0.5290904976
0.434679055
0.5000369574
0.4945284831
0.5091415274
0.5132363833
0.5178681343
0.5198137747
0.9591891641
0.1141044078
0.5294335237
0.4370118018
0.5020976665
0.4967673181
0.5109778294
0.5147801481
0.519009167
0.5205882203
1.100718621
0.1868418402
0.4797318916
0.3888113923
0.4186396707
0.4113534691
0.4208849642
0.4276926556
0.4367567271
0.4455359485
1.147519549
0.3825436823
0.5563521005
0.454842408
0.4669331989
0.4518468274
0.4552795168
0.4583037063
0.4646471386
0.4716245012
1.390267773
0.5852877989
0.6955430722
0.5729775453
0.5600364585
0.5308777455
0.5229909363
0.5183802935
0.5189909284
0.5219074873
1.584083759
0.7823455891
0.8504826908
0.7153083425
0.681848277
0.6379703018
0.6167568355
0.6021495821
0.5947640723
0.5916415457
1.684510289
0.9639760555
0.9908547711
0.8587289793
0.8121544657
0.7581407923
0.7250000319
0.7004975111
0.6844378272
0.6743381616
1.711163942
1.118542632
1.10491813
0.9874111156
0.933683676
0.8755698622
0.8339602442
0.8017113232
0.777985764
0.7612864496
1.692617711
1.239899668
1.192380066
1.094795795
1.037336947
0.9797661412
0.9332322373
0.8960814056
0.8666197528
0.8446072187
1.649278816
1.328723783
1.257151671
1.180388306
1.120796645
1.066287404
1.017391648
0.977776496
0.9445745135
0.9188210938
1.595432494
1.38963733
1.303986136
1.246611997
1.185592363
1.134984305
1.085175897
1.044710306
1.009325043
0.9812082215
1.540920248
1.428757892
1.337143235
1.29672255
1.234662975
1.187824878
1.137755206
1.09728635
1.060723234
1.031232197
1.492160712
1.452148711
1.360091981
1.333808895
1.271019223
1.227379891
1.177259136
1.137111773
1.099929402
1.069673638
1.452674634
1.46499201
1.375513864
1.360432706
1.297183204
1.256028473
1.205870028
1.166077934
1.128537277
1.09783862
1.423744016
1.471269322
1.385381654
1.378555887
1.315050459
1.275655932
1.225414745
1.185867236
1.148067576
1.117068718
1.405168326
1.473723334
1.39104904
1.389577381
1.325941134
1.28761198
1.237231565
1.197763831
1.15972364
1.128467187
1.396201323
1.474016974
1.393329755
1.394363628
1.330644442
1.292713411
1.242143068
1.202574761
1.164272618
1.132744192
0.7599224054
0.1388954177
0.4408418359
0.4086426584
0.4437091133
0.4490686724
0.4593685409
0.4675056029
0.4749556765
0.4820510419
0.8547738179
0.3377116924
0.537168168
0.4919250296
0.5120630956
0.5098567804
0.5147571145
0.519178117
0.5238667316
0.5289119604
1.205451803
0.5998310874
0.7175688132
0.647922247
0.6440577649
0.6287792346
0.6233194384
0.6204367767
0.6193301485
0.6199121725
1.472454263
0.8656422293
0.9134350688
0.8325395493
0.8103752411
0.7843367606
0.7682697168
0.7571811715
0.748830506
0.7434255032
1.61155877
1.110331614
1.085487179
1.013403524
0.9820166411
0.9527265426
0.929684271
0.9124380386
0.897540334
0.8861579816
1.655415584
1.319395287
1.222015251
1.172053872
1.137356741
1.112209616
1.087022751
1.067301859
1.04819981
1.032322049
1.644150466
1.486239881
1.325281211
1.302430382
1.266628082
1.250007836
1.22633472
1.207597909
1.187025024
1.168808949
1.603933533
1.612034174
1.401441594
1.405348159
1.368601397
1.361820704
1.341433404
1.325874724
1.305966966
1.28739533
1.551840851
1.702411744
1.456764957
1.484552331
1.446419422
1.448812085
1.431986278
1.420438225
1.402383515
1.384801135
1.498973384
1.764666277
1.496433518
1.544367309
1.504526655
1.514544024
1.500747202
1.493081373
1.477240045
1.461292386
1.45223454
1.805916755
1.524457791
1.588677945
1.547110708
1.56301296
1.551447546
1.547033777
1.53323918
1.51902946
1.415158542
1.832195087
1.543821119
1.620602902
1.577531029
1.597709761
1.58761381
1.585649398
1.573475898
1.560773886
1.388716922
1.848080187
1.55665016
1.642476188
1.598250035
1.621316277
1.612068227
1.611754252
1.600691583
1.589097897
1.372227175
1.856690208
1.564347982
1.655916955
1.610916695
1.635679558
1.62681058
1.627421571
1.616966285
1.606016943
1.364484961
1.859897832
1.567723004
1.66190418
1.616480278
1.641878615
1.633018702
1.633895056
1.623566627
1.612779764
0.6724970776
0.2296848201
0.4910792492
0.4994914234
0.5144063939
0.5226631264
0.523131769
0.5276732457
0.529747308
0.5335830433
0.7540922102
0.4434344268
0.6007056152
0.5954925592
0.5941711377
0.5945496432
0.5894418054
0.5903792547
0.5898755767
0.5918969023
1.143647886
0.7499943314
0.8050172302
0.7745738757
0.7452434446
0.7326163907
0.7171105468
0.7115196569
0.7059772841
0.7043515549
1.446274565
1.064318197
1.026925546
0.9860473168
0.9335252583
0.9109478773
0.8850632811
0.872765117
0.8613400276
0.8551816588
1.605172068
1.351796458
1.222229349
1.192917167
1.127452679
1.10308224
1.070884922
1.054381477
1.038210077
1.027976699
1.654955384
1.596089646
1.378234487
1.375082229
1.303913539
1.285538799
1.252138055
1.235227388
1.21679001
1.204119918
1.640932445
1.790333668
1.49747592
1.526031639
1.452376211
1.444511247
1.413650247
1.399643332
1.381545177
1.368481967
1.593050716
1.936223591
1.586528477
1.646471903
1.571220458
1.575120693
1.548534272
1.539351631
1.523453574
1.511705182
1.531140762
2.04047571
1.652066019
1.740219697
1.663445377
1.678281711
1.656158418
1.652337739
1.639515503
1.630093482
1.468321447
2.111740893
1.699662544
1.811790652
1.733516001
1.757523073
1.739227715
1.740371784
1.730705127
1.723934552
1.412843817
2.158493884
1.733702355
1.865327863
1.785737069
1.816933508
1.801561693
1.806809019
1.79989731
1.795611413
1.368996734
2.187930345
1.757503284
1.90422342
1.823625849
1.860149887
1.846824631
1.855175268
1.850404499
1.848152548
1.337948811
2.205532785
1.773468849
1.931066736
1.849797063
1.889998289
1.87797823
1.888458126
1.885163843
1.884370163
1.318876016
2.215029297
1.783201606
1.947687261
1.866033726
1.908455596
1.897136566
1.908855538
1.906398531
1.906453992
1.310201103
2.218643005
1.787608779
1.955197579
1.873360487
1.916675568
1.905539272
1.9176757
1.915450419
1.915747738
0.539819363
0.1436016412
0.4532019054
0.5001940604
0.529683791
0.5522111153
0.5571581679
0.5652492952
0.5675266046
0.5709712246
0.5734751619
0.3426909246
0.5555630351
0.5933306133
0.60887697
0.6249841151
0.6254775122
0.630793487
0.6311668121
0.6333236917
0.9639338114
0.658850066
0.7646890971
0.7778474597
0.7647047896
0.7683630949
0.7590317282
0.7586352119
0.7547766844
0.7540896285
1.281501584
0.99216359
0.9978241923
0.9995580484
0.9608050517
0.954425109
0.9347923341
0.9284724093
0.9196270164
0.915455753
1.450532944
1.297697109
1.203023433
1.216436421
1.162787212
1.154813839
1.129053901
1.119451495
1.106905211
1.099901095
1.501795762
1.556316125
1.365928614
1.40684744
1.346429913
1.345242162
1.318800783
1.309881033
1.296204572
1.288057634
1.482491409
1.76051882
1.489630883
1.564383835
1.501089502
1.511654191
1.488570854
1.483756426
1.471557726
1.464237271
1.42504556
1.912193071
1.581492987
1.690118397
1.62527307
1.649060329
1.631230563
1.632465118
1.623541996
1.618612523
1.351540509
2.01873401
1.648747323
1.788133359
1.722084183
1.758280208
1.74592295
1.75368862
1.748813231
1.747122442
1.276888025
2.089736023
1.697334711
1.8631129
1.796044406
1.842767679
1.835184357
1.848966913
1.848090499
1.84980301
1.210687915
2.134679673
1.731897433
1.919316523
1.851484783
1.906564427
1.902729153
1.921510785
1.924089933
1.928884556
1.158055626
2.161680969
1.755948505
1.960232524
1.891936872
1.953283566
1.952166189
1.974766668
1.980038704
1.987319235
1.1205701
2.176947799
1.772027773
1.988522205
1.920021725
1.985741253
1.986430691
2.011687191
2.018835057
2.027885541
1.097475679
2.184710668
1.781825526
2.006068062
1.937519328
2.00590513
2.0076204
2.034448212
2.042678621
2.052755695
1.087090609
2.187490604
1.786282135
2.013994345
1.945427191
2.014902172
2.01694878
2.044338239
2.052896576
2.063266135
0.5244823305
0.1283562084
0.4534434432
0.5166834083
0.5512444666
0.5812138503
0.5882901673
0.5989004944
0.6018201402
0.6058481158
0.5367562981
0.3242496395
0.5533799018
0.6090471262
0.6298194371
0.653711883
0.6565131017
0.6645840035
0.665823357
0.6688031564
0.9267308258
0.6466072984
0.765598946
0.7964856989
0.7871256799
0.7982345396
0.7909421378
0.7934149539
0.7906598595
0.7911728793
1.252680131
0.9918277733
1.006243795
1.024482902
0.9868985578
0.9869361131
0.9685125412
0.9649422917
0.9573498206
0.9548265913
1.429063695
1.309761467
1.218928196
1.248186912
1.193313047
1.190736762
1.165261847
1.158220064
1.14705058
1.14217918
1.484110724
1.579246725
1.3878661
1.444722106
1.38134315
1.384937428
1.358081797
1.351614318
1.339456636
1.333912296
1.465301674
1.791985931
1.516181958
1.607503817
1.540113804
1.555269796
1.531380642
1.529048367
1.518543509
1.514243328
1.405885
1.949664832
1.611570052
1.737703923
1.668088726
1.696574402
1.677802029
1.681665802
1.674634807
1.673074236
1.328857939
2.059865929
1.681513531
1.839483462
1.768335679
1.809500374
1.796226283
1.806833445
1.804051374
1.80600238
1.249974362
2.13260914
1.732119345
1.917570041
1.845323327
1.897345645
1.888956173
1.905808174
1.907206629
1.912763039
1.179599839
2.177919722
1.768148343
1.97624845
1.903324463
1.964029259
1.9595286
1.981586882
1.986589936
1.995364506
1.123390664
2.204467629
1.793213224
2.019027769
1.945818645
2.013072294
2.011426589
2.037471294
2.045273488
2.056609963
1.083270357
2.218936773
1.809938561
2.04859564
1.975385432
2.047225386
2.04749851
2.076314988
2.086055341
2.099186307
1.058601643
2.225912388
1.82007483
2.066857289
1.993773299
2.068408256
2.069779625
2.100225854
2.111065002
2.12519998
1.047680387
2.228119612
1.824582468
2.074939247
2.00194338
2.077704575
2.07943225
2.110439527
2.121579417
2.135945624
0.4856790507
0.07184978718
0.4246907329
0.5004568898
0.5469806407
0.5858064588
0.5985725239
0.6133818299
0.6186878608
0.6242864978
0.4796734786
0.2584505659
0.5180938546
0.5886168592
0.6224756347
0.6560336118
0.6650499766
0.6776989581
0.6815901378
0.6863340052
0.8658888002
0.5788487733
0.7286325461
0.7747871296
0.7783916581
0.7992143294
0.7981519308
0.8052918102
0.8053032478
0.8077354914
1.196627226
0.9284956928
0.9725651542
1.005057684
0.9791803237
0.9881042511
0.975273736
0.9760480895
0.9710904646
0.9705404693
1.378467798
1.252801215
1.189345518
1.232016594
1.187505588
1.192852655
1.172147222
1.16897961
1.160211608
1.157323354
1.437089739
1.528533703
1.361529676
1.431407802
1.377352922
1.388198066
1.365448792
1.362465061
1.352500056
1.348945876
1.419754607
1.746505673
1.492071571
1.596366672
1.537559728
1.559639247
1.539453728
1.540382232
1.531944998
1.529654972
1.360151191
1.908084452
1.588918441
1.728180871
1.666630169
1.701955845
1.686697706
1.69374995
1.6887405
1.689218152
1.281826533
2.020839715
1.65979522
1.831155719
1.767725015
1.815775942
1.805959477
1.819775555
1.819017299
1.823030737
1.201096274
2.094966268
1.710967779
1.910112882
1.845371111
1.904377716
1.899454948
1.919573871
1.923016289
1.930642727
1.128794194
2.140757595
1.747293783
1.969382957
1.903859126
1.971651783
1.970650743
1.996037008
2.003099999
2.013929943
1.070936512
2.167166375
1.772447802
2.012494144
1.946659466
2.021085069
2.022973607
2.052390864
2.062254881
2.075609581
1.029660278
2.181126398
1.789097024
2.042137967
1.976327675
2.055390587
2.059223241
2.091431774
2.103217648
2.118310916
1.00438832
2.18740688
1.799016647
2.06021702
1.99458195
2.076448165
2.081387142
2.115215137
2.128064829
2.144091203
0.9933957101
2.188824238
1.803162115
2.067839832
2.002344682
2.085297562
2.090578725
2.124926523
2.138023514
2.154198497
0.4822620742
0.04800981624
0.4124262784
0.4913809163
0.5441200336
0.5876763415
0.6043019448
0.6222190687
0.6297590132
0.6371069774
0.4691220432
0.2309156797
0.5025019631
0.5771143378
0.6174850823
0.6560996472
0.6691761185
0.685111479
0.6913650987
0.697963494
0.8530821531
0.5497715424
0.7114911365
0.7617816602
0.771666939
0.7974474642
0.8003444611
0.8107382582
0.8131122721
0.8174414969
1.186175681
0.9016631212
0.9570647302
0.9929063279
0.9724013989
0.9855616315
0.9761105393
0.9797594488
0.9769364705
0.9781982522
1.371204562
1.229912601
1.176497312
1.221779201
1.181590699
1.190274662
1.172169792
1.171330178
1.164344867
1.163107195
1.432457506
1.50995043
1.351115135
1.423100746
1.37245475
1.385881889
1.365024237
1.36384766
1.355307303
1.35322481
1.416863626
1.731896429
1.483552973
1.589630031
1.533485989
1.557615258
1.538784477
1.541114924
1.533805395
1.532821387
1.3582097
1.896804228
1.581805021
1.722624157
1.663132637
1.70014923
1.68586664
1.694032957
1.68992461
1.691558928
1.280247087
2.012120448
1.653696628
1.826443674
1.764589106
1.814079093
1.804967986
1.819693004
1.819659418
1.824690062
1.199556706
2.088045886
1.705565365
1.905953737
1.842416756
1.902671675
1.89825309
1.919122866
1.92314129
1.931646871
1.127197015
2.134941078
1.742313287
1.965506923
1.900921225
1.969806158
1.969153919
1.995157744
2.002662728
2.014232495
1.069371868
2.161841002
1.767637669
2.008635574
1.94356854
2.018951678
2.021067406
2.050983822
2.061167182
2.075124182
1.028287689
2.17574911
1.784209531
2.038023029
1.972895303
2.0527943
2.056760183
2.089360981
2.101355244
2.116919875
1.003348452
2.181472118
1.793800015
2.055554644
1.990590614
2.073178571
2.078178281
2.112300226
2.125259016
2.141636576
0.9927229391
2.181825574
1.797344745
2.062318134
1.997541247
2.081102064
2.086386181
2.120934125
2.134050602
2.150468353
0.4699394007
0.01403523298
0.3926044764
0.4731685989
0.5327555003
0.5803367749
0.6009266653
0.6216881973
0.6314300411
0.6403884731
0.4499156653
0.191940024
0.4786335027
0.5558891974
0.6036370512
0.6466923234
0.6640153265
0.6830071237
0.6916059551
0.6999117618
0.8303843391
0.5071554912
0.6848943744
0.7380679947
0.755516471
0.7858053441
0.7929904243
0.8064561025
0.8111862135
0.8172330434
1.164138541
0.8585958434
0.9305253863
0.9686828166
0.9553986
0.972586876
0.9670611205
0.973474044
0.9727927246
0.975633736
1.350930688
1.188051829
1.151111923
1.198100726
1.164610089
1.176648677
1.161911377
1.163360103
1.158174467
1.158288993
1.413747103
1.46986746
1.326907773
1.400129225
1.355690557
1.371875182
1.353851696
1.354490579
1.347393292
1.346414731
1.399145305
1.693593427
1.460202761
1.567147939
1.516789929
1.543228775
1.526813145
1.530575483
1.524400264
1.524289552
1.340963256
1.860012532
1.558984863
1.700352753
1.646282444
1.685279777
1.673104414
1.682412837
1.679191608
1.681494124
1.263117603
1.976448334
1.631140337
1.804139097
1.747391726
1.798606616
1.791370964
1.807014915
1.807667701
1.813181395
1.182388392
2.05305771
1.683058333
1.883409904
1.824722417
1.886486875
1.883760502
1.905366489
1.909899187
1.918714593
1.110016414
2.100201322
1.719670419
1.942536341
1.882606942
1.952810899
1.953700876
1.980282163
1.988147883
1.999862202
1.052318037
2.126908334
1.744680259
1.985050734
1.924516979
2.001046474
2.004580847
2.034932647
2.045338378
2.059285198
1.011509165
2.14015921
1.760745089
2.013620697
1.952975448
2.033861929
2.039146331
2.072054489
2.084148349
2.099562704
0.9869356422
2.14473064
1.769614407
2.030107618
1.969644265
2.053069708
2.059306516
2.093617857
2.106567475
2.122670428
0.9766211035
2.143397121
1.772194662
2.035568739
1.975370848
2.059622482
2.066073228
2.100696012
2.113702836
2.12973366
0.4706970406
-0.004619172862
0.3814704131
0.4606421225
0.524148277
0.5737375825
0.5969746114
0.619694931
0.6311717969
0.6414901803
0.4475092476
0.1707647791
0.4650764812
0.5414234721
0.5932885472
0.6385558197
0.6586689325
0.6797435835
0.6901679554
0.699901806
0.8250885377
0.483009047
0.669071901
0.7214466551
0.7431416238
0.7756728012
0.7856716423
0.8012227982
0.8077807081
0.8152569986
1.158491376
0.8332533211
0.9141549561
0.9511109487
0.9419185734
0.9610211653
0.9580720876
0.9663444351
0.9673285917
0.9714820119
1.345955849
1.162726463
1.13512211
1.18044102
1.150740125
1.164204141
1.151652387
1.154599972
1.150811829
1.152044721
1.409654537
1.44511154
1.311506931
1.38264716
1.341688861
1.358831105
1.342596687
1.344359639
1.338370425
1.338291779
1.395789098
1.66956096
1.445278197
1.549775456
1.502618621
1.529631473
1.514675039
1.519238853
1.513912286
1.514492167
1.338148763
1.836649752
1.544348873
1.682916226
1.631796723
1.671059693
1.660084954
1.669935376
1.667344625
1.670149102
1.260716237
1.953575587
1.616609579
1.786453825
1.732437415
1.783657324
1.777415431
1.793388447
1.794486731
1.800330629
1.180365174
2.030414864
1.668461239
1.865298925
1.809160105
1.870698062
1.868793584
1.890544667
1.895359755
1.904342619
1.108420523
2.077464438
1.704833263
1.923820371
1.866306177
1.936072997
1.937639388
1.964201548
1.972201214
1.983927951
1.051238782
2.103692209
1.729416277
1.965536764
1.907343323
1.983243257
1.987331956
2.017515268
2.027920182
2.041734663
1.011002847
2.116005035
1.74484267
1.993093109
1.934777341
2.01485706
2.020594631
2.053197921
2.065169841
2.080319965
0.9869380927
2.11909739
1.752829435
2.00832263
1.950240765
2.032692917
2.039297352
2.073175996
2.085893483
2.101612391
0.9769012364
2.115669294
1.754246533
2.012250862
1.954542248
2.037656323
2.044395324
2.078457477
2.091124132
2.106656811
0.4683655404
-0.02269943449
0.3703137139
0.4481443913
0.5149335115
0.565915134
0.591202441
0.6153345633
0.628102021
0.6393967795
0.442448231
0.1502349444
0.4517539772
0.5272071588
0.5825822095
0.6294290265
0.651725734
0.6743171561
0.6861063089
0.6968680477
0.8172693302
0.4595376824
0.6536416508
0.7052617551
0.7306727357
0.7648487288
0.7770873202
0.7941732315
0.8021055121
0.810608909
1.149936325
0.8081107831
0.8978684395
0.9337928991
0.9283318281
0.9488830989
0.948049209
0.9577072267
0.9599533738
0.9650409294
1.337622123
1.136863693
1.118720151
1.162650029
1.136576893
1.151166148
1.140489992
1.144572092
1.141853011
1.143867205
1.401848328
1.419020584
1.295216004
1.364629356
1.327173222
1.345119082
1.330506095
1.333135775
1.328004121
1.328535446
1.388507419
1.643448868
1.42907055
1.531523031
1.487747412
1.515292505
1.501742348
1.506938188
1.502278951
1.50330558
1.331322062
1.810558602
1.528121741
1.664328468
1.616476192
1.656044614
1.646305025
1.656595715
1.654512336
1.657616848
1.254317231
1.927442451
1.600249391
1.767408733
1.716554514
1.767881482
1.762736553
1.778991028
1.780459391
1.786468619
1.174419864
2.004100009
1.651852404
1.845669352
1.792605137
1.854069398
1.85314553
1.875038016
1.880099804
1.88912069
1.103003735
2.050749392
1.687847322
1.903469265
1.848971644
1.918495679
1.920940925
1.947516182
1.955649229
1.96729377
1.046410899
2.076270638
1.711901975
1.944308678
1.889112951
1.964610775
1.969489704
1.999566269
2.009999961
2.02362016
1.006752246
2.087478702
1.726617962
1.970806158
1.915515007
1.99504108
2.001491318
2.033874503
2.045778295
2.060629635
0.9831217362
2.088974554
1.733677486
1.98476388
1.929780676
2.011531075
2.018776969
2.052323388
2.064879195
2.08020062
0.9732187049
2.083382497
1.733913539
1.987177909
1.932682237
2.014942063
2.022247231
2.055856788
2.068262171
2.083295864
0.4704572815
-0.03074506207
0.3653213997
0.4416703657
0.5100054478
0.5615178152
0.5878951206
0.6127956793
0.6263317557
0.6382345721
0.443504791
0.1411425549
0.4457010408
0.5198481886
0.5768425977
0.6242980471
0.6477424464
0.671153682
0.6837503454
0.6951498431
0.8165960875
0.4486747264
0.6463093462
0.6966869783
0.7238323852
0.7586504665
0.7720688379
0.7899851318
0.7987317856
0.8078740666
1.148580131
0.7960462903
0.8898754807
0.9243981658
0.9207077846
0.9417983592
0.9420853682
0.9524935206
0.9554932833
0.9611677958
1.336228032
1.124150176
1.110524496
1.152831351
1.128494057
1.143441434
1.133759994
1.138450754
1.136377348
1.138890323
1.400728242
1.405988391
1.287000297
1.354568514
1.318791666
1.336905701
1.323148135
1.326231283
1.321624802
1.322553754
1.387765419
1.630264304
1.420854126
1.521241161
1.479086245
1.506631739
1.493814508
1.499326541
1.495081853
1.496408433
1.330992099
1.797282148
1.519862936
1.653777002
1.607488386
1.646912033
1.637805435
1.648297011
1.646532554
1.649848445
1.254421364
1.914060264
1.591883338
1.756512879
1.707169837
1.758221015
1.753626316
1.769982396
1.771686227
1.777824593
1.175006073
1.990537119
1.643302284
1.834341645
1.782746675
1.843813094
1.843367983
1.865272854
1.870494315
1.879565392
1.104125399
2.036862566
1.679020568
1.891609679
1.838558114
1.907568785
1.91042898
1.936932373
1.945153878
1.956773063
1.048081808
2.06183645
1.702683386
1.931800523
1.87805269
1.952926297
1.958162486
1.988086918
1.998541438
2.012063882
1.008904762
2.0721918
1.716867038
1.957511432
1.903699309
1.982493636
1.989248583
2.02140078
2.033259912
2.04794431
0.9855892137
2.07245894
1.723226265
1.970520705
1.917077926
1.997988836
2.00548771
2.038721787
2.051165757
2.066251258
0.9757199024
2.065208557
1.722567124
1.971802948
1.918933451
2.000240203
2.007739343
2.040944875
2.0531622
2.067884055
0.4696598391
-0.03509802777
0.3625522147
0.4385194706
0.5075593635
0.5593108031
0.586107637
0.6112798165
0.6250783578
0.6371765201
0.4420922817
0.1362012571
0.4424304544
0.5162967818
0.574051845
0.6217876323
0.6456810149
0.6693857586
0.6822601281
0.6938650351
0.81447104
0.442984132
0.6425186064
0.6926513412
0.7206175249
0.7557353486
0.7696200625
0.7878357169
0.7968632789
0.8062109174
1.146186889
0.7898491656
0.8858113975
0.9200298049
0.9171868444
0.9385443888
0.9392808376
0.9499604917
0.9532211054
0.9590820297
1.333818392
1.117654525
1.106351302
1.148270211
1.124780777
1.13993409
1.13066114
1.135574158
1.133725317
1.136393315
1.398414726
1.399317956
1.282782097
1.349879664
1.314942651
1.333196812
1.319803287
1.32305548
1.31863215
1.319680848
1.385581863
1.623482443
1.416599981
1.516434537
1.475109125
1.502736347
1.490244719
1.495879002
1.491779241
1.493190785
1.328952351
1.790417725
1.515561692
1.648838227
1.603367236
1.642823901
1.634012165
1.644586574
1.642933041
1.646302898
1.252533066
1.907114738
1.587516174
1.751419168
1.702882885
1.75392279
1.749596597
1.766000965
1.767786611
1.773950937
1.173292004
1.983488278
1.638844548
1.829065298
1.778268662
1.839281601
1.839081648
1.861003926
1.866281387
1.875351369
1.102601982
2.029658134
1.674440104
1.886117066
1.833860833
1.902777889
1.90586238
1.932353947
1.940606949
1.952199005
1.046751183
2.054396832
1.697939993
1.926051491
1.873104028
1.947844558
1.953285484
1.983169837
1.993632314
2.007102192
1.007740112
2.064409152
1.71191216
1.951457483
1.898459845
1.977081906
1.984022852
2.016106354
2.027949747
2.042556935
0.9845242419
2.064196108
1.717999206
1.964103653
1.911498905
1.992197326
1.999862487
2.03299724
2.045400307
2.060383331
0.9746423102
2.056305377
1.716996266
1.964955635
1.912955257
1.994005791
2.001647323
2.034718025
2.046864643
2.061454963
0.4704572815
-0.03074506207
0.3653213997
0.4416703657
0.5100054478
0.5615178152
0.5878951206
0.6127956793
0.6263317557
0.6382345721
0.443504791
0.1411425549
0.4457010408
0.5198481886
0.5768425977
0.6242980471
0.6477424464
0.671153682
0.6837503454
0.6951498431
0.8165960875
0.4486747264
0.6463093462
0.6966869783
0.7238323852
0.7586504665
0.7720688379
0.7899851318
0.7987317856
0.8078740666
1.148580131
0.7960462903
0.8898754807
0.9243981658
0.9207077846
0.9417983592
0.9420853682
0.9524935206
0.9554932833
0.9611677958
1.336228032
1.124150176
1.110524496
1.152831351
1.128494057
1.143441434
1.133759994
1.138450754
1.136377348
1.138890323
1.400728242
1.405988391
1.287000297
1.354568514
1.318791666
1.336905701
1.323148135
1.326231283
1.321624802
1.322553754
1.387765419
1.630264304
1.420854126
1.521241161
1.479086245
1.506631739
1.493814508
1.499326541
1.495081853
1.496408433
1.330992099
1.797282148
1.519862936
1.653777002
1.607488386
1.646912033
1.637805435
1.648297011
1.646532554
1.649848445
1.254421364
1.914060264
1.591883338
1.756512879
1.707169837
1.758221015
1.753626316
1.769982396
1.771686227
1.777824593
1.175006073
1.990537119
1.643302284
1.834341645
1.782746675
1.843813094
1.843367983
1.865272854
1.870494315
1.879565392
1.104125399
2.036862566
1.679020568
1.891609679
1.838558114
1.907568785
1.91042898
1.936932373
1.945153878
1.956773063
1.048081808
2.06183645
1.702683386
1.931800523
1.87805269
1.952926297
1.958162486
1.988086918
1.998541438
2.012063882
1.008904762
2.0721918
1.716867038
1.957511432
1.903699309
1.982493636
1.989248583
2.02140078
2.033259912
2.04794431
0.9855892137
2.07245894
1.723226265
1.970520705
1.917077926
1.997988836
2.00548771
2.038721787
2.051165757
2.066251258
0.9757199024
2.065208557
1.722567124
1.971802948
1.918933451
2.000240203
2.007739343
2.040944875
2.0531622
2.067884055
0.4683655404
-0.02269943449
0.3703137139
0.4481443913
0.5149335115
0.565915134
0.591202441
0.6153345633
0.628102021
0.6393967795
0.442448231
0.1502349444
0.4517539772
0.5272071588
0.5825822095
0.6294290265
0.651725734
0.6743171561
0.6861063089
0.6968680477
0.8172693302
0.4595376824
0.6536416508
0.7052617551
0.7306727357
0.7648487288
0.7770873202
0.7941732315
0.8021055121
0.810608909
1.149936325
0.8081107831
0.8978684395
0.9337928991
0.9283318281
0.9488830989
0.948049209
0.9577072267
0.9599533738
0.9650409294
1.337622123
1.136863693
1.118720151
1.162650029
1.136576893
1.151166148
1.140489992
1.144572092
1.141853011
1.143867205
1.401848328
1.419020584
1.295216004
1.364629356
1.327173222
1.345119082
1.330506095
1.333135775
1.328004121
1.328535446
1.388507419
1.643448868
1.42907055
1.531523031
1.487747412
1.515292505
1.501742348
1.506938188
1.502278951
1.50330558
1.331322062
1.810558602
1.528121741
1.664328468
1.616476192
1.656044614
1.646305025
1.656595715
1.654512336
1.657616848
1.254317231
1.927442451
1.600249391
1.767408733
1.716554514
1.767881482
1.762736553
1.778991028
1.780459391
1.786468619
1.174419864
2.004100009
1.651852404
1.845669352
1.792605137
1.854069398
1.85314553
1.875038016
1.880099804
1.88912069
1.103003735
2.050749392
1.687847322
1.903469265
1.848971644
1.918495679
1.920940925
1.947516182
1.955649229
1.96729377
1.046410899
2.076270638
1.711901975
1.944308678
1.889112951
1.964610775
1.969489704
1.999566269
2.009999961
2.02362016
1.006752246
2.087478702
1.726617962
1.970806158
1.915515007
1.99504108
2.001491318
2.033874503
2.045778295
2.060629635
0.9831217362
2.088974554
1.733677486
1.98476388
1.929780676
2.011531075
2.018776969
2.052323388
2.064879195
2.08020062
0.9732187049
2.083382497
1.733913539
1.987177909
1.932682237
2.014942063
2.022247231
2.055856788
2.068262171
2.083295864
0.4706970406
-0.004619172863
0.3814704131
0.4606421225
0.524148277
0.5737375825
0.5969746114
0.619694931
0.6311717969
0.6414901803
0.4475092476
0.1707647791
0.4650764812
0.5414234721
0.5932885472
0.6385558197
0.6586689325
0.6797435835
0.6901679554
0.699901806
0.8250885377
0.483009047
0.669071901
0.7214466551
0.7431416238
0.7756728012
0.7856716423
0.8012227982
0.8077807081
0.8152569986
1.158491376
0.8332533211
0.9141549561
0.9511109487
0.9419185734
0.9610211653
0.9580720876
0.9663444351
0.9673285917
0.9714820119
1.345955849
1.162726463
1.13512211
1.18044102
1.150740125
1.164204141
1.151652387
1.154599972
1.150811829
1.152044721
1.409654537
1.44511154
1.311506931
1.38264716
1.341688861
1.358831105
1.342596687
1.344359639
1.338370425
1.338291779
1.395789098
1.66956096
1.445278197
1.549775456
1.502618621
1.529631473
1.514675039
1.519238853
1.513912286
1.514492167
1.338148763
1.836649752
1.544348873
1.682916226
1.631796723
1.671059693
1.660084954
1.669935376
1.667344625
1.670149102
1.260716237
1.953575587
1.616609579
1.786453825
1.732437415
1.783657324
1.777415431
1.793388447
1.794486731
1.800330629
1.180365174
2.030414864
1.668461239
1.865298925
1.809160105
1.870698062
1.868793584
1.890544667
1.895359755
1.904342619
1.108420523
2.077464438
1.704833263
1.923820371
1.866306177
1.936072997
1.937639388
1.964201548
1.972201214
1.983927951
1.051238782
2.103692209
1.729416277
1.965536764
1.907343323
1.983243257
1.987331956
2.017515268
2.027920182
2.041734663
1.011002847
2.116005035
1.74484267
1.993093109
1.934777341
2.01485706
2.020594631
2.053197921
2.065169841
2.080319965
0.9869380927
2.11909739