/*--------------------------------*- C++ -*----------------------------------*\
| =========                 |                                                 |
| \\      /  F ield         | OpenFOAM: The Open Source CFD Toolbox           |
|  \\    /   O peration     | Version:  2.1.x                                 |
|   \\  /    A nd           | Web:      www.OpenFOAM.org                      |
|    \\/     M anipulation  |                                                 |
\*---------------------------------------------------------------------------*/
FoamFile
{
    version     2.0;
    format      ascii;
    class       surfaceScalarField;
    location    "3500";
    object      phi;
}
// * * * * * * * * * * * * * * * * * * * * * * * * * * * * * * * * * * * * * //

dimensions      [0 3 -1 0 0 0 0];

internalField   nonuniform List<scalar> 
109000
(
0.001785435425
0.001395577959
0.0001523166164
0.0009734747457
0.0006637573791
0.0001482032999
0.0006622362155
0.0001898943002
0.00012134423
0.0005030388298
6.345329664e-05
9.574408903e-05
0.0004088216655
2.237116979e-05
7.184599452e-05
0.0003465537415
1.062792207e-05
5.164000198e-05
0.0003024504817
8.577124744e-06
3.552613507e-05
0.0002701247766
9.0911655e-06
2.323453957e-05
0.0002461388421
9.71486919e-06
1.427106529e-05
9.724141583e-06
8.01533322e-06
0.0002283993673
0.002898844934
0.001612653714
0.0002174193102
0.002196896105
0.001108621314
0.0002570848947
0.001645180491
0.0005046747704
0.0002369351434
0.001281554208
0.0002255400977
0.0002015394823
0.001043518887
9.968020149e-05
0.0001607262889
0.0008818299036
5.024541237e-05
0.0001220714936
0.0007677034651
3.386451541e-05
8.883904777e-05
0.0006849333432
2.989133621e-05
6.196995124e-05
0.0006240637134
2.927619363e-05
4.130830533e-05
2.850122019e-05
2.609213799e-05
0.0005791944968
0.003280725117
0.001436884568
0.0002283740298
0.002836491691
0.001259084924
0.000293769815
0.002301761536
0.0007467913918
0.0002926135341
0.001860966167
0.0004027523236
0.0002635831433
0.001535306747
0.0002046830451
0.0002206565762
0.001301358875
0.0001089814439
0.0001752118401
0.001133004547
6.891464123e-05
0.0001333042024
0.001010590771
5.470251938e-05
9.760259252e-05
0.0009208100577
5.016542191e-05
6.889148513e-05
4.771748127e-05
4.682356919e-05
0.0008547702274
0.003373006296
0.001167972009
0.0002292062629
0.003115020953
0.001214563527
0.0003025067404
0.002681678452
0.00086565894
0.0003144749521
0.002253027746
0.0005368793407
0.0002945236892
0.001896746695
0.0003048246239
0.0002561394721
0.001622321926
0.0001722540275
0.0002111521854
0.00141755271
0.0001068401813
0.0001668436766
0.001266351908
7.873567424e-05
0.000127167647
0.001154911347
6.771261172e-05
9.389337058e-05
6.246505653e-05
6.731285447e-05
0.001072850918
0.003356906226
0.0009142500951
0.0002302156876
0.00319347048
0.001075979827
0.0003020194465
0.002861068811
0.0008783391475
0.0003197214616
0.002484958537
0.0006070371729
0.0003059524414
0.002139562932
0.000377247131
0.000272973098
0.001854193482
0.0002261701651
0.0002314533131
0.001631641966
0.0001409496768
0.0001884420202
0.001463143963
9.890620629e-05
0.0001483274708
0.001337412265
7.997771796e-05
0.0001134665924
7.096679692e-05
8.467870038e-05
0.001244231824
0.003309823548
0.0007056842955
0.0002320422516
0.003176520637
0.0009095592869
0.0002997234512
0.002914804088
0.0008216125355
0.0003184431602
0.002597003063
0.0006176860576
0.0003071521404
0.002283145884
0.000413303817
0.0002778004931
0.002007926533
0.0002615596175
0.0002398298985
0.001783611434
0.0001658181006
0.0001994466755
0.001608717791
0.0001130024071
0.0001607974417
0.001475809608
8.653887761e-05
0.0001263470242
7.323799037e-05
9.717568294e-05
0.001376362731
0.003262359568
0.0005426097805
0.000234014947
0.003124973857
0.00074895334
0.0002979916581
0.002901724511
0.0007292338546
0.0003156280266
0.00263065906
0.0005846456658
0.000304105843
0.002352680631
0.0004151070094
0.0002761752362
0.002098394464
0.0002752838404
0.0002405619448
0.001883224464
0.0001783695255
0.0002026185742
0.001710534192
0.0001197246933
0.0001659679864
0.001576683897
8.751052789e-05
0.0001328786447
7.028040856e-05
0.0001044287725
0.001475212706
0.00322357419
0.0004166776367
0.0002357579541
0.003068687932
0.0006066803247
0.0002971592733
0.002860627495
0.0006240676801
0.0003132266109
0.002620286376
0.0005249126074
0.0003000741781
0.002373188674
0.0003903219114
0.0002718827992
0.002142169505
0.0002690667422
0.0002372362672
0.001941566797
0.0001780692305
0.000200903003
0.001776674828
0.0001186276485
0.0001659890147
0.001646401291
8.336215268e-05
0.0001344219115
6.32540307e-05
0.0001071277567
0.001546299912
0.003194255798
0.0003185404122
0.0002371814262
0.003019328272
0.0004846334166
0.0002969744348
0.002813058697
0.0005186700121
0.0003116672427
0.002589857952
0.0004516415622
0.0002964717901
0.002365417583
0.0003476713804
0.0002670909002
0.002155179079
0.0002469406661
0.0002323645795
0.001970075083
0.0001664105805
0.0001967626466
0.001815424311
0.000110283755
0.0001629946657
0.001691367439
7.474732606e-05
0.0001326716982
5.321950637e-05
0.0001065103674
0.001594891596
0.003172745695
0.0002407943497
0.000238300367
0.002980251027
0.0003799818518
0.0002971462333
0.002769536342
0.0004185232178
0.0003108614793
0.002554189313
0.0003732503061
0.0002937382847
0.002344525022
0.0002944978309
0.0002628378408
0.00215033612
0.0002137225811
0.0002274069869
0.001979107044
0.0001457721911
0.000191867466
0.00183482799
9.588463879e-05
0.0001586781694
0.001717938888
6.245233736e-05
0.000129184091
4.106205609e-05
0.0001039064329
0.001626189906
0.003157243011
0.0001777839387
0.0002391674
0.002950773905
0.0002889900635
0.0002974608943
0.002733886681
0.0003248579074
0.0003105525341
0.002520944362
0.0002943483452
0.0002918442807
0.002320073478
0.0002359067822
0.0002594619327
0.002137215158
0.0001734885089
0.0002230923918
0.001976981458
0.0001187821257
0.0001872237654
0.001841803842
7.687247788e-05
0.0001541897765
0.001731693535
4.74226473e-05
0.000125139997
2.745349701e-05
0.0001004415229
0.001644860572
0.003146219738
0.0001250478043
0.0002398163968
0.002929309957
0.0002080921415
0.0002978077028
0.002706505524
0.0002371505923
0.0003105117478
0.002493487082
0.0002167624308
0.0002906043569
0.002297352104
0.0001750679953
0.000256973764
0.002122028866
0.0001291272114
0.0002196845357
0.001969802748
8.766578816e-05
0.0001833424558
0.00184174276
5.472089155e-05
0.0001502115742
0.001737413283
3.042044373e-05
0.0001213316806
1.300951372e-05
9.695106024e-05
0.001654906206
0.003138639298
7.943438555e-05
0.0002402741204
0.002914494847
0.0001341366205
0.0002980999728
0.002687085851
0.0001539616619
0.0003105979264
0.002473056963
0.0001409382215
0.0002898530974
0.002279301644
0.0001135445845
0.000255278729
0.002108544051
8.266091974e-05
0.0002172238847
0.00196168463
5.411413585e-05
0.0001804110732
0.001838759693
3.055694113e-05
0.0001470888881
0.001738730003
1.223208129e-05
0.0001182180526
-1.811792004e-06
9.396564614e-05
0.001659585662
0.003133988909
3.827119557e-05
0.000240574281
0.002905224668
6.458726366e-05
0.0002983135975
0.00267466793
7.382189861e-05
0.0003106965021
0.002459584715
6.660601201e-05
0.0002894154244
0.002266973015
5.193529515e-05
0.0002542209889
0.00209872265
3.527674093e-05
0.0002156345439
0.001955106389
1.927002426e-05
0.0001784603728
0.001835386958
5.324033968e-06
0.0001449523382
0.001738160263
-6.563006932e-06
0.0001160217826
-1.678825009e-05
9.179256701e-05
0.001661344154
0.003131689109
0.0002407151248
-8.330387579e-07
0.002900690138
0.0002984224087
-2.836173313e-06
0.002668557149
0.000310753858
-4.798970899e-06
0.002452949832
0.0002892224861
-7.009156752e-06
0.002260640756
0.0002537147847
-9.47041373e-06
0.002093518813
0.0002148449318
-1.244624813e-05
0.001951334527
0.0001774693836
-1.601507266e-05
0.001833175022
0.0001438399733
-2.035643437e-05
0.001737283704
0.0001148461728
-2.55178615e-05
9.05815688e-05
0.00166156497
-3.165108564e-05
0.001873139946
0.00153087738
8.162929058e-05
0.001129482524
0.0007875266341
0.0001043340881
0.0008505532771
0.0002992724949
0.000101000982
0.0007104173943
0.0001482506094
8.762936244e-05
0.0006249388272
8.627151042e-05
7.105305114e-05
0.0005644775394
5.739228571e-05
5.470900407e-05
0.0005179285321
4.195294309e-05
4.012219928e-05
0.0004807438048
3.248081487e-05
2.793845204e-05
0.0004506712767
2.608604727e-05
1.82575461e-05
2.143001227e-05
1.085690687e-05
0.0004263996908
0.003146393945
0.001802736695
0.0001325060504
0.002636154993
0.00134370948
0.0002111410009
0.002199195932
0.0007416023077
0.0002315643916
0.001897367062
0.000432295666
0.0002193232959
0.001685619462
0.0002676245612
0.0001911208382
0.001527988697
0.0001798235405
0.0001572710033
0.001404843904
0.0001303611387
0.0001235756457
0.001305896998
0.000100261753
9.313591841e-05
0.001225463291
8.050089281e-05
6.73271669e-05
6.649492062e-05
4.641340303e-05
0.001160077118
0.003605413958
0.001614429912
0.0001445968541
0.003454028235
0.001537371434
0.0002514935839
0.00312479094
0.001067913887
0.0002955392502
0.002808078157
0.0007147609991
0.0002978305929
0.002542925787
0.000478938619
0.0002744948885
0.002326724503
0.0003333396839
0.0002378969809
0.002150069776
0.0002436641631
0.0001966559054
0.002004763266
0.000186878702
0.0001562921527
0.001884961224
0.0001492720847
0.0001199223354
0.0001228882285
8.890998463e-05
0.001786481501
0.003722252363
0.001308720942
0.0001459628708
0.0038169839
0.001482087019
0.0002630596186
0.003662874967
0.00121519007
0.0003213077014
0.003425068125
0.0009100595164
0.0003370320136
0.003177650973
0.000658628878
0.0003238663652
0.002949658731
0.0004797971993
0.0002926869121
0.00274956376
0.0003582886884
0.0002523141222
0.002577905351
0.0002763488392
0.0002093559187
0.002432514828
0.0002203650688
0.0001681909097
0.0001805839104
0.0001312843788
0.002310847622
0.003707478937
0.001019367477
0.0001454902162
0.003921140098
0.001306417711
0.0002640275932
0.003914216598
0.001213309355
0.0003285256763
0.003782977795
0.000995093108
0.0003521576521
0.003595974396
0.0007710431101
0.0003475622651
0.003394650914
0.0005888544943
0.0003237195003
0.003200803778
0.0004523400098
0.0002882378348
0.003024371213
0.000353663902
0.0002474449725
0.002869192952
0.0002829161358
0.0002060937863
0.0002315639814
0.0001672701291
0.002735621453
0.003655799368
0.0007836437106
0.000145266649
0.003902496249
0.0010971924
0.0002622518814
0.003987285738
0.001118565751
0.0003283972755
0.003948670195
0.0009858860937
0.0003549746982
0.003832766075
0.0008095185606
0.0003552291627
0.003678289476
0.0006460813002
0.0003370796917
0.003511685307
0.0005115084674
0.0003068823865
0.003348828242
0.0004071972393
0.0002701211692
0.003198474675
0.0003284038229
0.0002312129041
0.0002691600049
0.0001933040992
0.003064750235
0.003604380309
0.0006012078345
0.0001453705146
0.00384098207
0.0008981350745
0.0002604472225
0.003968497523
0.0009803857993
0.000326292524
0.003992615361
0.0009131087029
0.0003527653966
0.003937733706
0.0007860124506
0.0003545630006
0.003833055153
0.0006518484899
0.0003394733082
0.00370288697
0.000531183407
0.0003131118181
0.003564745281
0.0004311390638
0.0002801678502
0.003429898873
0.0003516811433
0.0002444477328
0.0002893830335
0.0002088055919
0.003305299025
0.003563376162
0.000461412325
0.0001455773021
0.003775242041
0.0007242471419
0.0002591813263
0.003913984505
0.0008305979071
0.0003242720394
0.003972104226
0.0008057856754
0.0003492774846
0.003959872876
0.0007196131028
0.0003505134967
0.003896798142
0.000615939089
0.0003362204023
0.003802412321
0.0005146432855
0.0003118289452
0.003692414561
0.0004256190062
0.0002815068324
0.003578707873
0.0003512732571
0.000248536486
0.0002908293686
0.0002153552162
0.003469034078
0.003533373008
0.0003527444135
0.0001457763301
0.003719324605
0.0005768906788
0.0002583793001
0.003853472486
0.0006853007541
0.0003228165153
0.003925433544
0.0006842496673
0.0003460467405
0.003938331257
0.0006280478151
0.0003457584744
0.003905030875
0.0005507666635
0.0003308373866
0.003839702764
0.000469849925
0.0003068841185
0.003755638827
0.0003948105541
0.0002778670546
0.003663412397
0.0003294638432
0.0002467075426
0.0002742849314
0.0002154926803
0.003570974521
0.003511648975
0.0002667644471
0.0001459313587
0.003676285086
0.0004515388137
0.0002578619868
0.003800271588
0.0005502763352
0.0003218993965
0.003874356967
0.000560367884
0.0003435346888
0.003899393987
0.00052437586
0.000341472776
0.003884313168
0.0004680143984
0.0003252400707
0.003839877821
0.0004053880975
0.0003007646412
0.003776423426
0.0003449216966
0.0002720214216
0.003703131986
0.0002901880739
0.0002417513009
0.0002425615983
0.0002117926236
0.003626969128
0.003496204673
0.0001970729307
0.000146054243
0.003644521248
0.0003431537597
0.0002575293741
0.003758127662
0.0004258766796
0.000321345775
0.003829046552
0.000439568287
0.0003417249881
0.003858435747
0.0004163947649
0.0003380538324
0.003853170457
0.0003760069873
0.0003203650936
0.003821906173
0.0003289591816
0.0002949169652
0.003773240349
0.0002819662129
0.0002658110839
0.003714574705
0.0002382525011
0.0002357412135
0.000198997151
0.0002063922589
0.003652188417
0.003485308654
0.0001387385921
0.0001461420814
0.003621827566
0.0002471363366
0.000257306214
0.003726641631
0.0003105615581
0.0003210128041
0.003793219535
0.0003231183063
0.0003404764336
0.003822891835
0.0003081747649
0.0003355214639
0.003822146831
0.0002799252371
0.0003165112905
0.003798520212
0.0002459171669
0.0002900110896
0.00375928791
0.0002111397459
0.0002602703426
0.003711035796
0.0001778502138
0.0002299860826
0.0001471697504
0.000200784429
0.003659029827
0.003477793561
8.831503654e-05
0.0001462041148
0.003606346415
0.0001595195475
0.0002571639077
0.003704723363
0.0002019634494
0.0003208190872
0.003767334794
0.0002107128629
0.0003396471105
0.003795719739
0.000201328489
0.0003337400598
0.003796670507
0.0001825058175
0.0003136925362
0.003776951307
0.0001597571115
0.0002862903284
0.003743489683
0.0001357945571
0.0002558957012
0.003701908742
0.0001124045236
0.0002252446837
9.024395341e-05
0.0001959271143
0.003656873071
0.003473143957
4.290190105e-05
0.0001462434595
0.003596641045
7.726415799e-05
0.0002570718988
0.00369090371
9.769114556e-05
0.0003207061408
0.003750545355
0.0001013532709
0.0003391333715
0.003777872522
9.560829301e-05
0.0003326140183
0.003779022797
8.512576802e-05
0.0003118643177
0.003761247937
7.21865945e-05
0.00028380575
0.003730683221
5.842637083e-05
0.0002528852406
0.003692932206
4.43103677e-05
0.0002218669534
3.032955416e-05
0.0001923434056
0.003652295767
0.00347096132
0.000146260329
-3.046228399e-07
0.003591963363
0.0002570245461
-2.340022474e-06
0.003684173827
0.0003206390927
-4.40455375e-06
0.003742512574
0.0003388704851
-6.633475002e-06
0.003768949044
0.0003320437534
-9.157145341e-06
0.003770094541
0.0003109256805
-1.210047786e-05
0.003752885169
0.0002825061019
-1.564075195e-05
0.003723695469
0.0002512752877
-1.9819243e-05
0.003687645734
0.0002200113632
-2.480508792e-05
0.0001903007373
0.003649043954
-3.078783407e-05
0.001845792269
0.001515566117
5.360090421e-05
0.001120028398
0.0007500182757
8.007968347e-05
0.0008627732475
0.0002730249574
8.523117522e-05
0.0007426469719
0.0001285047425
7.925089547e-05
0.0006743404287
7.100763326e-05
6.835196111e-05
0.0006277310424
4.564260546e-05
5.567578489e-05
0.0005917298502
3.309706229e-05
4.302632911e-05
0.0005620948859
2.613242662e-05
3.144098974e-05
0.0005370272883
2.190690668e-05
2.141823709e-05
1.906367788e-05
1.309511493e-05
0.0005157254023
0.003115088398
0.00178503804
8.128572911e-05
0.002632248525
0.001296315962
0.0001476831871
0.002246912072
0.0007104882912
0.000179437511
0.001998436462
0.0004124932655
0.0001838103829
0.001834034882
0.0002552609252
0.0001712691264
0.001715214021
0.000172071301
0.0001496631689
0.00162197707
0.0001255950222
0.0001243146371
0.001544719921
9.782820413e-05
9.869728931e-05
0.001478931834
8.015922402e-05
7.486293675e-05
6.807742353e-05
5.383506293e-05
0.001422496428
0.003574668923
0.001600322691
8.797328051e-05
0.003456722346
0.001492529556
0.0001732265672
0.003197609222
0.001040362858
0.0002247778065
0.002960444368
0.0007023934168
0.0002450952953
0.00276999301
0.0004782790871
0.0002419280854
0.002617163097
0.0003396847064
0.0002231134882
0.002490547784
0.00025344425
0.0001954219905
0.002382391579
0.0001982253027
0.0001640512593
0.002288399743
0.0001615136926
0.000132559702
0.0001358875099
0.0001031100154
0.002206389626
0.003691419383
0.001299231182
8.893499767e-05
0.003821863364
0.001443999608
0.0001811455851
0.003747338845
0.001192961208
0.0002432338721
0.003606240382
0.0009051613859
0.0002753625069
0.003455435749
0.0006698646785
0.0002830854068
0.003313266934
0.0005023208735
0.0002722195604
0.003183588326
0.0003866275707
0.00024880941
0.003066031226
0.0003068328517
0.000218305469
0.002959667163
0.0002510793377
0.0001849893275
0.0002107860066
0.0001518571315
0.002864195914
0.003675800838
0.001013410431
8.891012885e-05
0.003925089076
0.001275838819
0.0001829001445
0.004001065106
0.001196035838
0.0002494750164
0.003975455226
0.000995150969
0.0002877779484
0.003899268989
0.0007904510539
0.0003031621274
0.003801368557
0.0006239648152
0.0002999759899
0.003696112004
0.0004971776218
0.000282944337
0.003590595784
0.0004029987189
0.0002567953256
0.003488779172
0.0003333285468
0.0002256611889
0.0002810820704
0.0001927661849
0.003392987052
0.003622985352
0.0007800592949
8.893243299e-05
0.003904626331
0.001073444499
0.0001830052232
0.004072320247
0.001105605265
0.0002511339319
0.004142130473
0.0009886708603
0.0002916445804
0.004144169251
0.0008327914586
0.0003108499809
0.004104336215
0.0006881570744
0.0003127204678
0.004039976122
0.0005673129845
0.0003011071172
0.00396232946
0.0004709013034
0.0002798652464
0.003879000708
0.0003953112902
0.0002525589128
0.0003361710022
0.0002221687931
0.003795047083
0.00357053046
0.0005991831982
8.901615125e-05
0.003841346174
0.0008802493772
0.0001828266296
0.004050737511
0.0009710644341
0.000251442018
0.004182737646
0.000917321556
0.000292114566
0.004247812774
0.0008098691908
0.0003124101403
0.004263006947
0.0006958180248
0.0003166181847
0.004243480156
0.0005916108091
0.0003083407847
0.004200952088
0.0005027150165
0.0002908822047
0.004144233359
0.0004292358035
0.0002672419482
0.0003688966496
0.0002399826243
0.00408033068
0.003528743904
0.0004603487907
8.906780607e-05
0.003774330108
0.0007112380708
0.0001826064285
0.003993840268
0.0008243656449
0.0002514606687
0.004158204594
0.000810689103
0.0002915456116
0.004264958561
0.0007421617554
0.0003114669644
0.004322856774
0.0006580488836
0.0003160913313
0.00434269238
0.0005744042693
0.0003091998791
0.004334305336
0.0004986895645
0.0002939193275
0.004306474887
0.0004327102153
0.0002728925238
0.0003764046117
0.0002483058256
0.004266016315
0.00349802791
0.000352335493
8.906171785e-05
0.003717655244
0.0005676586102
0.0001823314262
0.003931865641
0.0006815757124
0.0002513960513
0.004108350563
0.0006894689739
0.0002907819473
0.004238131288
0.0006483670145
0.0003097724908
0.004324393385
0.0005888418479
0.0003137823253
0.004373648824
0.000525084861
0.0003069480872
0.00439360691
0.0004641334433
0.0002924650901
0.004391516762
0.0004086651054
0.0002728428002
0.0003594893345
0.0002500241179
0.004373900602
0.003475835339
0.0002667120325
8.901948037e-05
0.003674057785
0.0004452881203
0.0001820100307
0.003877880724
0.0005483958175
0.0002512563526
0.004055171848
0.000565668987
0.0002900435511
0.004195006298
0.0005419664641
0.0003080388768
0.004297236038
0.0005008138152
0.0003110383631
0.004365833954
0.0004537020438
0.0003035495426
0.004406223725
0.0004068145337
0.0002889505599
0.004424520933
0.0003623592577
0.0002697599411
0.0003218271741
0.0002478206489
0.004426155068
0.003459926545
0.0001972804048
8.895932523e-05
0.003642023675
0.0003390484986
0.0001816718664
0.003835360122
0.0004253492168
0.0002510559283
0.004008869808
0.0004445030838
0.000289381206
0.004151365041
0.0004310059449
0.0003065191179
0.004261149369
0.0004029128311
0.0003084817504
0.004340654593
0.0003690373356
0.0003000764493
0.004394387691
0.0003339980233
0.0002848944961
0.004426989229
0.0002999749881
0.0002655239447
0.000268105859
0.0002437902656
0.004443312538
0.003448713103
0.000139109646
8.889973696e-05
0.003619102664
0.0002446036035
0.0001813615487
0.003803895939
0.0003107448583
0.0002508238868
0.003972678066
0.0003273927391
0.0002888046519
0.004114307585
0.0003196408904
0.0003052569987
0.004226663643
0.0003007442932
0.0003063237711
0.004311745454
0.0002769347834
0.0002970318306
0.004373006962
0.0002518876483
0.0002811192092
0.004414690089
0.0002270106353
0.0002612673085
0.000203062042
0.0002393377567
0.004441180579
0.003441020186
8.874664624e-05
8.884692828e-05
0.003603458774
0.000158225918
0.0001811030052
0.003781976072
0.0002024457141
0.0002506009336
0.003946693586
0.0002139952161
0.0002883271197
0.004086403574
0.000209386512
0.0003042844503
0.004199130122
0.0001970433496
0.0003046669315
0.004286362065
0.0001813644806
0.0002946286884
0.004351618619
0.0001644943559
0.0002780324391
0.004398636071
0.0001475978159
0.0002576400516
0.0001309701084
0.0002353376144
0.004431317504
0.003436221048
4.33615681e-05
8.880748978e-05
0.003593699133
7.690186779e-05
0.0001809178643
0.003768172464
9.825843212e-05
0.0002504200911
0.003930027879
0.0001033064031
0.0002879667698
0.004068209928
0.0001002247044
0.0003035937768
0.004180430897
9.317692991e-05
0.0003035097681
0.004268387501
8.427211134e-05
0.0002929415162
0.004335284824
7.466261947e-05
0.0002758196535
0.004385005734
6.478460509e-05
0.0002549592543
5.482087738e-05
0.0002322700801
0.004421228291
0.003433963575
8.878107498e-05
1.772473333e-07
0.003588964573
0.0001808088997
-1.883484535e-06
0.003761505665
0.0002503026033
-3.946169805e-06
0.00392190328
0.0002877463451
-5.96707183e-06
0.004059210085
0.0003031910233
-8.229370934e-06
0.004171044669
0.0003028580325
-1.059000592e-05
0.004259101595
0.0002919945596
-1.327327257e-05
0.004326649385
0.0002745582104
-1.616809321e-05
0.004377545813
0.0002533873168
-1.948777649e-05
0.0002303944405
0.004415347555
-2.307456835e-05
0.001829559983
0.001523375416
3.399550479e-05
0.001096031328
0.0007579647329
5.564360606e-05
0.0008378005207
0.000281057848
6.240413418e-05
0.0007220313385
0.0001347210583
6.02990194e-05
0.0006607945103
7.581056106e-05
5.377822827e-05
0.0006223852513
4.894147813e-05
4.514356576e-05
0.0005947232206
3.487042e-05
3.581793978e-05
0.0005729264429
2.651643029e-05
2.672133715e-05
0.0005548163978
2.11467272e-05
1.838155501e-05
1.7457376e-05
1.104624282e-05
0.0005394078939
0.003091725321
0.001795013129
5.126269468e-05
0.002588071341
0.001304954472
0.0001043474274
0.002196635203
0.0007177135502
0.0001342179467
0.001955687344
0.0004161551268
0.0001433241743
0.001807316563
0.0002569606282
0.0001384898399
0.001708668824
0.0001721432926
0.0001251090933
0.00163676684
0.0001239375624
0.000107149479
0.001580100531
9.443448289e-05
8.744554529e-05
0.001532997984
7.524177525e-05
6.787043562e-05
6.202077151e-05
4.954864187e-05
0.00149272101
0.003551985903
0.001609430286
5.490022055e-05
0.003408836742
0.001499445838
0.0001218843627
0.003139316125
0.001044724761
0.0001672872134
0.002909061464
0.0007013519007
0.0001901531821
0.002738641429
0.0004745738256
0.000194734923
0.002613426449
0.0003346418891
0.0001858298723
0.00251745173
0.0002472727378
0.0001680615338
0.002439824918
0.0001907686266
0.0001453439273
0.002374224101
0.0001527714928
0.0001206308023
0.000126092491
9.595622635e-05
0.00231730617
0.00367029539
0.001306109007
5.526088744e-05
0.0037755611
0.001447909253
0.0001274164595
0.003689048933
0.001193949915
0.0001805208847
0.003553482726
0.0008995530173
0.0002127275972
0.003423682986
0.0006607515114
0.0002267074614
0.0033129158
0.0004921116104
0.0002255170253
0.003219857245
0.0003762561644
0.0002128845378
0.003140043193
0.0002962970817
0.0001925910664
0.003069788774
0.0002401030685
0.0001679121702
0.0001993350575
0.0001414036851
0.003006999654
0.003655349041
0.001017881906
5.518818859e-05
0.003880533961
0.001276511528
0.0001291129499
0.003944567922
0.001193931201
0.0001854597691
0.003923707036
0.0009858913839
0.0002223004679
0.003868324698
0.0007768817889
0.0002424141876
0.003803113415
0.0006094243539
0.0002478745292
0.003737660562
0.000483328812
0.0002413245425
0.003674720144
0.0003902350926
0.0002257977334
0.003614727079
0.000321513878
0.0002042434437
0.0002697851406
0.0001792092494
0.003557833932
0.003602396932
0.0007825463368
5.517107003e-05
0.003860530522
0.001071539245
0.0001298439164
0.004017013507
0.001101022081
0.0001875600679
0.004091463983
0.0009769538164
0.0002261316714
0.00411357331
0.0008164289768
0.0002491934659
0.004106496527
0.0006704783119
0.0002587432929
0.004083284076
0.0005507543116
0.0002568940689
0.004050797654
0.0004565996153
0.0002459871457
0.004013011644
0.0003834357309
0.0002284230693
0.0003261287575
0.0002064298739
0.003972406946
0.003549289889
0.0006004140847
5.515851471e-05
0.003796784695
0.0008765634303
0.0001303076379
0.0039954218
0.00096499884
0.0001888281538
0.004132143453
0.0009045348214
0.0002278119078
0.00421695414
0.0007922116276
0.0002518168025
0.004264391134
0.0006764405305
0.0002632189723
0.004285899586
0.0005735059345
0.00026408071
0.004289359742
0.0004875921958
0.0002564294673
0.004280295012
0.0004174921859
0.0002422502239
0.0003605179624
0.0002233832828
0.004262505148
0.003507029125
0.0004607532475
5.509951835e-05
0.003728758083
0.00070687429
0.0001305666111
0.003937685145
0.0008177753128
0.0001897571331
0.004107093916
0.0007978989967
0.0002287726659
0.004233304207
0.0007246993199
0.0002527689811
0.004322731139
0.0006385265304
0.0002645783992
0.00438288974
0.000556013329
0.0002665338837
0.004420370745
0.0004833946192
0.0002606358992
0.00444049886
0.0004215954738
0.0002486611211
0.0003694018507
0.0002321930056
0.004447727791
0.003475772458
0.0003523488781
5.499362893e-05
0.00367108945
0.0005632777312
0.0001306109937
0.003874797455
0.0006750699061
0.0001903934531
0.00405629713
0.0006777809835
0.0002294002851
0.004205406685
0.0006322859024
0.0002530763535
0.004322577242
0.0005705269879
0.0002646113107
0.004411300293
0.0005075789902
0.0002666593747
0.004476201655
0.0004496031226
0.0002613552248
0.004521805431
0.0003983727861
0.0002504617119
0.000353919535
0.0002354312825
0.004551880582
0.003453258347
0.0002665419474
5.486806366e-05
0.003626634704
0.0004414221626
0.0001304892424
0.003819608156
0.0005426295426
0.0001907232645
0.004002105128
0.0005555820176
0.0002297455446
0.004161369798
0.0005279645772
0.0002530955318
0.00429400726
0.0004848000436
0.0002641278455
0.004401214337
0.0004381467907
0.0002657746658
0.0044856226
0.0003937707864
0.000260374633
0.004550580639
0.0003534261351
0.0002497485532
0.0003175773254
0.0002353303328
0.004599413164
0.003437022772
0.0001971343987
5.474410232e-05
0.00359397961
0.0003358601734
0.0001302770173
0.003776207246
0.0004206353168
0.0001908225184
0.003955004006
0.0004362971819
0.0002298692811
0.004116844849
0.000419701896
0.0002529409566
0.004256840169
0.0003898184179
0.000263468056
0.004374347678
0.0003561481199
0.0002645676106
0.004471108253
0.0003231691029
0.0002587356054
0.004549331637
0.0002928201712
0.000247906524
0.0002652283179
0.0002335415742
0.004611929336
0.00342566284
0.0001390375233
5.463377186e-05
0.003570611004
0.0002422330964
0.0001300404617
0.003744005207
0.0003073036081
0.0001907613931
0.00391806222
0.0003212388086
0.000229806012
0.004079096833
0.0003112526325
0.0002526716489
0.004221597841
0.0002908683789
0.0002627728026
0.004344280901
0.000267153177
0.0002633437135
0.004447768398
0.0002438063991
0.0002569944159
0.004534192222
0.0002219141949
0.0002457494606
0.0002018042199
0.0002311205142
0.004605833563
0.003417782084
8.885999106e-05
5.454237659e-05
0.003554560715
0.000156738517
0.0001298189534
0.003721603327
0.0002002324573
0.0001906294729
0.003891516018
0.0002100034154
0.0002296498212
0.004050869717
0.0002038297441
0.00025235364
0.004193632826
0.000190642576
0.0002621296255
0.004318108721
0.0001750496629
0.0002622563076
0.004425014989
0.0001595055414
0.000255427028
0.004515968309
0.0001448680277
0.0002437328993
0.0001313087907
0.000228720364
0.004593080988
0.003412947671
4.364203967e-05
5.447776978e-05
0.00354457541
7.637845495e-05
0.0001296501882
0.00370744705
9.72914232e-05
0.000190489485
0.00387453219
0.0001014132508
0.0002294717938
0.004032274643
9.763143364e-05
0.0002520496347
0.004174576122
9.026414793e-05
0.0002615867173
0.00429966899
8.150123253e-05
0.0002613970781
0.004407975504
7.281724518e-05
0.0002542014356
0.004501146043
6.453952406e-05
0.0002421172198
5.680962074e-05
0.0002267202774
0.004581195015
0.003410596092
5.443768677e-05
6.89336117e-07
0.003539781389
0.0001295464229
-1.544365096e-06
0.003700654604
0.0001903838518
-3.663040811e-06
0.003866264801
0.000229328305
-5.778906345e-06
0.00402314439
0.000251824074
-7.881205698e-06
0.004165172075
0.0002612197048
-1.012520966e-05
0.004290278537
0.0002608305397
-1.244120925e-05
0.004399041809
0.0002533832788
-1.477109534e-05
0.004493157186
0.0002410164813
-1.720501736e-05
0.0002253008186
0.004574338955
-1.927852674e-05
0.001819079527
0.00152427432
2.397165863e-05
0.001079960464
0.000752620252
4.214241708e-05
0.0008189228185
0.0002742439244
4.919785485e-05
0.0007029864113
0.0001270041944
4.923123232e-05
0.0006433647553
6.805333056e-05
4.534655363e-05
0.0006077752952
4.149554605e-05
3.923747986e-05
0.0005836439469
2.78883548e-05
3.206093324e-05
0.0005656617842
2.008691548e-05
2.461658445e-05
0.000551327488
1.530016202e-05
1.74156891e-05
1.21819381e-05
1.07548762e-05
0.0005394369166
0.003076223749
0.001797351038
3.530222784e-05
0.002557978724
0.001298900285
7.63124184e-05
0.002157008693
0.0007077762804
0.0001016556217
0.001912658432
0.0004027331662
0.000111945464
0.001766041716
0.0002419048616
0.0001112550241
0.001672937584
0.0001565734468
0.0001031353249
0.001609023787
0.0001084927168
9.045891364e-05
0.001561634015
7.949405851e-05
7.542817443e-05
0.001524161524
6.103559318e-05
5.960749544e-05
4.865791486e-05
4.403772977e-05
0.00149319646
0.003536148522
0.001611927032
3.750570415e-05
0.003375124096
0.001493659374
8.814969964e-05
0.00309140092
0.001033855229
0.0001249314412
0.002853665385