/*--------------------------------*- C++ -*----------------------------------*\
| =========                 |                                                 |
| \\      /  F ield         | OpenFOAM: The Open Source CFD Toolbox           |
|  \\    /   O peration     | Version:  2.1.x                                 |
|   \\  /    A nd           | Web:      www.OpenFOAM.org                      |
|    \\/     M anipulation  |                                                 |
\*---------------------------------------------------------------------------*/
FoamFile
{
    version     2.0;
    format      ascii;
    class       surfaceScalarField;
    location    "3500";
    object      phia;
}
// * * * * * * * * * * * * * * * * * * * * * * * * * * * * * * * * * * * * * //

dimensions      [0 3 -1 0 0 0 0];

internalField   nonuniform List<scalar> 
109000
(
0.0003863320337
0.002216460597
0.0007305373692
-1.29195936e-06
0.0006060487738
-0.0002184247808
3.62972666e-05
0.0001012329658
-0.0001388221918
-1.55293118e-05
0.0002532363486
-0.0002014097702
3.687975857e-06
0.0001174105546
-0.0001366278422
1.73420675e-06
0.0001278072762
-0.0001258535071
1.040873138e-05
8.925802603e-05
-9.793255066e-05
1.625945215e-05
7.933034222e-05
-8.518106298e-05
2.35244346e-05
6.59524475e-05
-7.321742995e-05
5.979886687e-05
-6.690083573e-05
3.062640346e-05
0.0002730585574
0.003952206869
0.00132453517
0.0003238974826
0.000708536036
-0.0001533261874
8.198051197e-05
0.0005006410097
-0.0001574910733
0.0001164442103
0.0004757124288
-0.0002569397786
8.271105484e-05
0.0003398270545
-0.0001886833444
9.237948974e-05
0.0003022568558
-0.0001841180145
9.367417112e-05
0.0002387552859
-0.0001507919413
0.000103758457
0.0002060731327
-0.0001368270763
0.0001137275915
0.0001782865033
-0.0001223031903
0.0001625759433
-0.0001153962467
0.0001263467617
0.0004349614546
0.005146472392
0.001704103023
0.0004998623251
0.0007206933479
-7.705818241e-05
0.0002491093925
0.0008146988402
-6.330489797e-05
0.0002816513166
0.0006299506391
-0.0001867801343
0.0002246394191
0.0005348303726
-0.0001379914206
0.0002266980774
0.0004513301835
-0.000151131986
0.0002185781778
0.0003757398985
-0.000128864713
0.0002245255627
0.0003238399349
-0.000123714187
0.0002317545141
0.0002863099517
-0.0001152523998
0.0002636761229
-0.0001132901813
0.0002439445158
0.0006498213143
0.005769610115
0.002060340962
0.0006628160418
0.0007411097559
-3.341113546e-05
0.0004439659026
0.0009634298782
7.011910119e-05
0.0004601886854
0.0006886709081
-7.494305175e-05
0.0003913951955
0.0006443860689
-4.07622065e-05
0.0003819697106
0.0005352172028
-7.446153441e-05
0.0003638645797
0.0004618940807
-6.804905126e-05
0.0003624693656
0.0004010098246
-7.577467569e-05
0.0003641624137
0.0003614516017
-7.683469799e-05
0.0003372384473
-8.212495304e-05
0.0003727250423
0.0008243390783
0.005898757817
0.00237991322
0.000819621003
0.0007723067957
-2.647896453e-05
0.0006284731264
0.0009694780473
0.0001850997076
0.000632208002
0.0006605692432
2.436678926e-05
0.0005587234765
0.0006601935931
5.767700142e-05
0.000539577795
0.0005460221243
8.340760038e-06
0.0005131119638
0.0004864323459
1.927565974e-06
0.0005041632387
0.0004275777853
-1.761923552e-05
0.0004996636583
0.0003936330912
-2.768190919e-05
0.0003734404841
-3.986854005e-05
0.0005033301616
0.0009349764071
0.005656636825
0.002640444585
0.0009609253329
0.000797195313
-5.083744314e-05
0.000787852018
0.0008831426119
0.0002594087503
0.0007863922577
0.0005732893349
8.873966861e-05
0.0007121978375
0.0006018706933
0.00013251732
0.0006866363126
0.0004963296218
7.525402739e-05
0.0006543170863
0.0004564755977
6.227597458e-05
0.0006391663838
0.0004078669097
3.486157803e-05
0.0006291421382
0.000385045128
1.861220883e-05
0.0003730470466
1.529032041e-06
0.0006280065437
0.0009884574725
0.00516866767
0.002832811682
0.001080114065
0.0008014934709
-9.595475017e-05
0.0009185384927
0.0007511772586
0.0002935409253
0.0009181494689
0.0004578300667
0.0001158482919
0.0008450844332
0.0004992760652
0.0001756596638
0.0008159962241
0.0004083765047
0.0001170413263
0.0007801129047
0.0003886960818
0.0001036628353
0.0007605017776
0.0003543938509
7.308418593e-05
0.0007462290732
0.0003450542337
5.426359869e-05
0.0003432628615
3.496940806e-05
0.0007410438502
0.001000306769
0.004540502066
0.002961258835
0.001175307348
0.0007772010531
-0.0001507081616
0.001021955803
0.0006069155688
0.0002976132353
0.001027004488
0.0003394013277
0.0001133800536
0.0009556582362
0.000380920768
0.0001897015494
0.000924958814
0.0003055471913
0.0001335287356
0.000887123697
0.0003025206263
0.0001240105726
0.0008646000935
0.0002827261512
9.419130326e-05
0.0008473275493
0.000286260592
7.606618579e-05
0.0002943996735
5.712827232e-05
0.000839062465
0.000986701829
0.003849676455
0.003037423782
0.001247870741
0.0007223371571
-0.0002063050165
0.001101343929
0.00047031512
0.0002831272612
0.001114526033
0.0002342766226
9.194260079e-05
0.001044956447
0.0002682688528
0.0001822215013
0.001013832839
0.0002069718114
0.0001296989877
0.0009749301638
0.0002154296945
0.0001259936074
0.0009505330256
0.0002077755407
9.934774864e-05
0.0009312312387
0.0002213919833
8.417039562e-05
0.0002373785223
6.750765981e-05
0.0009207447301
0.0009608555962
0.003146399168
0.00307572169
0.001301093006
0.000639264365
-0.0002571646176
0.001160695349
0.0003511404049
0.0002595723724
0.001183244219
0.0001505058384
6.122191403e-05
0.00111532276
0.0001743693322
0.0001618209797
0.001084326463
0.0001254698345
0.0001124982736
0.001044827988
0.0001402209504
0.000114707219
0.001019188899
0.0001412605854
9.215404491e-05
0.0009985079857
0.0001610786242
8.099427209e-05
0.0001817948392
6.766189719e-05
0.0009864297716
0.0009323228186
0.002457956459
0.003089519891
0.001338671101
0.000533306906
-0.0003003908233
0.001203902812
0.0002523382166
0.0002335704772
0.001235785108
9.013061614e-05
2.849292657e-05
0.001169354013
0.0001048488251
0.0001359516017
0.00113875457
6.732809633e-05
8.87411815e-05
0.001098824919
8.425037138e-05
9.590022945e-05
0.001072297518
9.052292528e-05
7.72650619e-05
0.001050571091
0.0001126070103
7.019804021e-05
0.0001345885592
6.044120684e-05
0.001037336164
0.000906946423
0.001794963863
0.003089346173
0.001364122071
0.0004110542952
-0.0003349230371
0.001234290691
0.0001728530422
0.0002093165547
0.001274583627
5.129270986e-05
-1.455029692e-06
0.001209405978
5.986599033e-05
0.0001101604831
0.001179328338
3.339323307e-05
6.401250332e-05
0.00113903475
4.974180668e-05
7.480215255e-05
0.001111763534
5.845622272e-05
5.933791863e-05
0.001089240318
7.932496165e-05
5.580526477e-05
9.949326019e-05
4.927996404e-05
0.001075055653
0.0008875033331
0.001157893955
0.003082866575
0.001380433636
0.0002787541695
-0.0003606301775
0.001254769603
0.0001092396267
0.0001892774484
0.001301773631
3.009352629e-05
-2.580484433e-05
0.001237616339
3.588393285e-05
8.813934929e-05
0.001207946909
2.069644844e-05
4.236621503e-05
0.001167313976
3.481483067e-05
5.555990886e-05
0.001139440654
4.395650792e-05
4.23730366e-05
0.001116202833
6.103164651e-05
4.153113695e-05
7.693495784e-05
3.756963342e-05
0.001101191502
0.0008749576627
0.0005413077562
0.003075028536
0.001389781281
0.0001417452457
-0.0003778146943
0.001267320389
5.687769398e-05
0.0001748228241
0.001318839331
2.159422686e-05
-4.30196421e-05
0.001255447268
2.71376207e-05
7.213837522e-05
0.001225996839
2.367378518e-05
2.647309198e-05
0.001185062717
3.461611916e-05
4.113283347e-05
0.001156656433
4.294537977e-05
2.941741213e-05
0.001132791744
5.447882732e-05
3.041750849e-05
6.437496999e-05
2.826515047e-05
0.001117086581
0.0008691886006
0.003068396403
-6.29772477e-05
0.001393542106
-0.0003867557611
4.147501653e-06
0.001273212209
0.0001667706762
1.043691458e-05
0.001326867731
-5.225512827e-05
2.01938329e-05
0.001263802424
6.354634937e-05
2.665657876e-05
0.001234387177
1.806757255e-05
3.502145896e-05
0.001193141603
3.356604875e-05
4.229564529e-05
0.001164326249
2.269976512e-05
4.90609684e-05
0.001139922259
2.470158177e-05
5.418123519e-05
2.349826327e-05
0.001123597877
5.720108914e-05
0.0001569130954
0.002878578803
0.001028375471
0.000325263934
-0.000319208826
-6.756679338e-05
0.0002484706194
-3.287827055e-05
-2.915060664e-05
0.0002185782387
-3.174610084e-05
-0.0001397712887
0.0001933836782
7.997539035e-06
-0.0001194308207
0.0001747812297
2.808668149e-05
-0.0001353377402
0.0001626367376
4.000999532e-05
-0.0001257980538
0.0001558091036
4.550189172e-05
-0.0001238553207
0.0001527294636
4.759699544e-05
-0.0001177347854
4.687309885e-05
-0.0001140532092
0.0001530087382
0.0005571282793
0.005189316809
0.001790008885
0.001016211933
-0.0008095407889
-0.0001220778783
0.000707598309
0.0001638351856
-4.559090539e-05
0.0006833920124
-2.684971716e-05
-0.0002376298657
0.0005939105535
0.000112256764
-0.0002034611104
0.0005544285511
0.0001206528546
-0.0002372021852
0.0005194928543
0.0001488981939
-0.0002247444431
0.0005011848396
0.0001532072809
-0.0002262244507
0.0004908678752
0.0001554726366
-0.0002198618671
0.0001511313307
-0.0002178006322
0.0004890140289
0.001304141681
0.006758062272
0.00216454588
0.001500591608
-0.0009755845721
-0.0001074643262
0.001195849536
0.0003733177693
3.195459048e-05
0.001133703877
3.433493639e-05
-0.0001858191289
0.001015265574
0.0002478922488
-0.0001551886031
0.0009545879844
0.0002367624895
-0.0002065640308
0.0009025280393
0.000277111548
-0.000205018122
0.0008721718293
0.0002779925378
-0.000218143234
0.0008533646053
0.0002798914533
-0.0002208639925
0.000271912462
-0.0002271194169
0.0008464127096
0.001992100389
0.00766366426
0.002495938585
0.001895473497
-0.0008307326741
-8.163614119e-05
0.001650633615
0.0005398458094
0.0001484309431
0.001557570099
0.0001277923581
-7.533695815e-05
0.001432545228
0.0003748777302
-4.272281647e-05
0.001356849884
0.0003457946736
-0.0001077983743
0.00129273205
0.0003921550263
-0.0001189746955
0.001251276418
0.0003893435572
-0.0001456700631
0.001223468328
0.0003911135726
-0.0001602487276
0.0003807858291
-0.0001770151943
0.001209485202
0.002517426037
0.008027248844
0.002832302599
0.002233674005
-0.0005063476698
-6.711193648e-05
0.002047439222
0.0006530746742
0.0002581056255
0.001939191123
0.0002245242229
3.58830237e-05
0.001820752661
0.0004708427033
8.015049002e-05
0.00173793907
0.0004285040057
8.445018931e-06
0.001667274354
0.0004754950415
-1.074773299e-05
0.001617310223
0.0004696807419
-4.799228977e-05
0.001581589734
0.0004716813898
-7.252923656e-05
0.0004607851515
-9.842295869e-05
0.00156014483
0.002882868434
0.007961868046
0.003156256948
0.002522115455
-0.0001250225635
-7.140956979e-05
0.002380175058
0.0007156325945
0.0003387912268
0.002269262634
0.0003043720914
0.0001198042244
0.00216304932
0.0005273334721
0.0001822398645
0.002079445954
0.000476624193
0.0001107372059
0.002007028972
0.000520098498
9.008950044e-05
0.001951985686
0.0005119602865
4.762531926e-05
0.001910447028
0.0005143712639
1.746099258e-05
0.0005041083707
-1.410156336e-05
0.001882754405
0.003118276781
0.007566283373
0.003443419574
0.002762199518
0.0002273765534
-9.227660481e-05
0.002651748339
0.0007330578281
0.0003865668715
0.002545705922
0.0003571173103
0.0001691454893
0.002452590808
0.0005445731255
0.0002515351246
0.002371984333
0.0004896984906
0.0001845735036
0.002300997954
0.0005269470693
0.000167800643
0.002243840325
0.0005169090601
0.0001252930419
0.002198780355
0.0005194980672
9.419676464e-05
0.0005103901392
6.097886609e-05
0.002166489129
0.003255303017
0.006926081474
0.003679557718
0.002956472434
0.000499150648
-0.0001236516731
0.002868935097
0.0007113902851
0.000406818115
0.002771681077
0.0003797934701
0.0001879579137
0.002689987209
0.0005275466562
0.0002884218871
0.002613734376
0.0004720374658
0.000227442593
0.00254571892
0.0005015426436
0.0002174304548
0.002488361684
0.0004900083418
0.0001784492575
0.002441786176
0.000492047928
0.0001500918329
0.0004841552156
0.000118624227
0.002406525145
0.003323709892
0.006111562593
0.003861532771
0.003109256385
0.0006667646886
-0.0001594655498
0.003039180108
0.0006569354396
0.0004076583837
0.00295273675
0.000373551232
0.0001846281964
0.002880085682
0.000483012622
0.0002994066034
0.00280833654
0.0004297296657
0.0002437559303
0.002743381816
0.0004514252458
0.0002410657291
0.002686799753
0.0004387150909
0.0002072230625
0.002639722252
0.0004396341936
0.0001836616311
0.0004323640089
0.0001561218291
0.002602899289
0.003348420891
0.005178042769
0.003994120624
0.00322649723
0.0007266725192
-0.0001951487872
0.003170238234
0.0005759668664
0.0003967999416
0.003095076277
0.0003420260848
0.0001679090175
0.003029106673
0.0004179771921
0.0002928260135
0.002961013754
0.0003694878835
0.0002408329756
0.002898763451
0.0003839019491
0.0002444808181
0.002843135383
0.0003706989229
0.0002157982815
0.002796210963
0.0003699701811
0.0001975827042
0.0003628299637
0.0001748454884
0.002758561417
0.003349525868
0.004165618222
0.004085818569
0.003313970279
0.0006896030269
-0.0002277657413
0.003268869062
0.0004743318711
0.0003803066887
0.003204454164
0.0002898483246
0.0001450855856
0.003143290561
0.0003385794548
0.0002765129411
0.003078018363
0.0002970904193
0.0002264108438
0.00301760996
0.0003054741343
0.0002347364474
0.002962851651
0.0002924300031
0.0002102922908
0.002916115629
0.0002899971256
0.0001969071173
0.0002824087
0.0001788131995
0.002878164901
0.003340732821
0.003102428289
0.004145103285
0.003377107293
0.0005738548565
-0.0002555493389
0.003340624342
0.0003575491067
0.0003625822695
0.003285894279
0.0002215716758
0.0001215516828
0.003227898759
0.0002499684873
0.0002567669699
0.003164651319
0.0002171548276
0.0002071955352
0.003105450572
0.0002209430071
0.0002185340272
0.003051100681
0.0002090187522
0.0001970990605
0.003004529991
0.000204885334
0.0001874877466
0.0001966055194
0.0001732499988
0.002966363136
0.003330123219
0.002008054984
0.004180416661
0.003420384747
0.0004004169387
-0.0002774537883
0.00339028138
0.0002302442679
0.0003466856542
0.00334328398
0.0001417559006
0.0001010083309
0.003287159546
0.0001560542802
0.0002381779911
0.003225258313
0.0001330333406
0.0001883889346
0.003166611385
0.0001337134483
0.0002014363957
0.003112515673
0.0001236025987
0.0001818849022
0.003065868621
0.0001181668979
0.0001748966247
0.0001092585724
0.0001634762341
0.003027308968
0.003321546841
0.0008969275972
0.004198009082
0.00344697605
0.0001899564149
-0.0002927833789
0.003421025362
9.635972571e-05
0.000334658054
0.003379260811
5.463245514e-05
8.586835429e-05
0.003324350921
5.918396768e-05
0.0002239185779
0.003262967118
4.718109125e-05
0.0001737091444
0.003204538579
4.567132119e-05
0.0001876034992
0.003150209037
3.825997243e-05
0.0001690895802
0.003103274316
3.183127042e-05
0.0001636878575
2.234860465e-05
0.0001540509124
0.003064398521
0.003315942009
0.004201983244
-0.0002193012527
0.003458983857
-0.0003010621776
-3.877901692e-05
0.003434815992
0.0003278148669
-4.051660044e-05
0.003395908155
7.761190207e-05
-3.632673808e-05
0.003341108705
0.0002159658355
-3.843606842e-05
0.003279829873
0.0001655133998
-3.898590347e-05
0.003221063297
0.0001797702058
-4.176626039e-05
0.003166454466
0.0001617394158
-4.617084698e-05
0.003119051858
0.0001570925996
-5.315713953e-05
0.0001482959996
0.003079690007
-6.308728079e-05
-5.342404989e-05
0.003638571868
0.0007765576523
0.0003062410022
-0.0004002065293
-2.70253162e-05
0.0002705475507
6.984296638e-05
-6.33001215e-05
0.0002779246107
1.01485441e-05
-0.0001572968928
0.0002662754852
4.206792937e-05
-0.0001498496246
0.0002589777515
4.008446035e-05
-0.0001681244669
0.0002520265473
4.28340685e-05
-0.000161680918
0.0002489618805
4.04854121e-05
-0.000161276066
0.0002475632103
3.948347045e-05
-0.0001558195857
3.71542628e-05
-0.0001523782992
0.0002487340376
0.0005422824762
0.006774698897
0.00144493938
0.001099955407
-0.001076949385
-3.007952954e-06
0.0008839707014
0.0003367656075
-9.65288414e-05
0.0008917578802
2.191758661e-05
-0.000257186087
0.0008322393186
0.000158570627
-0.0002604452465
0.0008081644612
0.0001273121592
-0.0003003550266
0.0007852606135
0.0001395478163
-0.0002985543432
0.0007738395575
0.0001301875487
-0.0003045055312
0.0007678680369
0.0001265497707
-0.0003009566467
0.000119008421
-0.0002998017303
0.0007680149769
0.001616754075
0.008867617239
0.001788203463
0.001742683834
-0.001337826857
2.748338736e-05
0.001538478125
0.0006264179716
-5.349206441e-05
0.001494845752
0.0001109443264
-0.0002312134963
0.00141135363
0.00032907549
-0.000242201344
0.001368973572
0.0002587685647
-0.0002956403785
0.001333543532
0.0002737940218
-0.0003038342872
0.001313460324
0.0002519424696
-0.0003198149473
0.001301762087
0.0002419925467
-0.000324608531
0.0002263105142
-0.0003311592852
0.001298499862
0.002589753168
0.009998260871
0.002108841785
0.002272076166
-0.00118102
7.92340034e-05
0.002135857652
0.0008653223667
4.574506196e-05
0.002049814639
0.0002550703626
-0.0001334199822
0.001965774937
0.0005140373404
-0.0001436449645
0.001912955859
0.0004099045139
-0.0002061152452
0.001871210208
0.0004209094102
-0.000224344433
0.001844727509
0.0003840614032
-0.0002513062974
0.001827774588
0.0003652011635
-0.0002665044239
0.0003397300611
-0.0002827047588
0.001820044606
0.003329177365
0.01037731148
0.002457474627
0.002716516345
-0.0007766704491
0.0001411995328
0.002644536195
0.001033094391
0.0001623137511
0.002536078979
0.0004125404388
-1.312983687e-05
0.002466507556
0.0006781034402
-1.434418609e-05
0.002412856464
0.0005526331094
-8.06324853e-05
0.002371653308
0.0005563702667
-0.0001050054327
0.002342486347
0.0005057218108
-0.0001404857364
0.002322275142
0.0004773031791
-0.0001644200476
0.0004422246841
-0.0001890415903
0.002310399151
0.003850335988
0.01020082419
0.00281570825
0.003089946016
-0.0002881883301
0.0002004982832
0.003063339688
0.001129328391
0.0002691635555
0.002947663814
0.0005495851287
9.843540788e-05
0.002898236679
0.0007984084063
0.0001113620336
0.002850506816
0.0006649174886
4.618268998e-05
0.002814975201
0.000661177038
2.081434417e-05
0.0027868709
0.0006003499666
-1.889853532e-05
0.002765906063
0.0005635754719
-4.784646324e-05
0.0005203287235
-7.777570052e-05
0.002751476161
0.004199986214
0.009623268815
0.003154288735
0.003399253404
0.0001697217488
0.0002505461262
0.003401612824
0.001159127795
0.0003544080469
0.003287455646
0.0006457908105
0.0001870969847
0.00325777821
0.00086398381
0.0002156371569
0.003219102989
0.0007333810546
0.0001547851591
0.003191897844
0.0007235420583
0.0001326407675
0.003167567172
0.000657104845
9.286883551e-05
0.003147950564
0.0006144939682
6.289487604e-05
0.000565358944
3.12086769e-05
0.003132690533
0.004422107476
0.008762253702
0.003451865355
0.003650536641
0.0005279018474
0.0002897390639
0.003671200335
0.001129122103
0.0004161601127
0.003563052144
0.0006918730855
0.00025002383
0.003549639606
0.0008729527654
0.0002928654696
0.003520380823
0.0007526088937
0.0002374735368
0.003501918608
0.0007385539867
0.0002208807419
0.003482469866
0.0006710699803
0.0001839328645
0.00346581344
0.0006252443938
0.0001559978328
0.0005732291191
0.0001254788296
0.003451088662
0.00455482852
0.007704386301
0.003697871651
0.00385036752
0.000754036458
0.0003188608398
0.003883146698
0.001046729497
0.0004572718107
0.003783278177
0.0006861747695
0.0002901950339
0.003782152937
0.0008289486616
0.0003445359473
0.003761271951
0.0007230890916
0.0002941567177
0.003750537649
0.0007067276906
0.0002836263277
0.00373613185
0.0006419011128
0.0002507977287
0.003722750074
0.0005957078385
0.0002265799626
0.0005435077898
0.0001990181947
0.003709575038
0.004629199417
0.006511403787
0.00389120372
0.004006073219
0.000842562802
0.0003394510671
0.004047495564
0.0009199213345
0.0004821857598
0.003956573326
0.0006322890308
0.000312716994
0.003964171325
0.000738792485
0.0003753841908
0.003949865872
0.0006494707844
0.0003287567363
0.00394541541
0.0006320977737
0.000323561197
0.003935308392
0.0005729382602
0.0002948681516
0.003925184
0.0005286396177
0.000274775317
0.0004788316571
0.0002508311702
0.003913874451
0.00466908361
0.005225859453
0.004035679293
0.004124654661
0.0008061569092
0.0003530691002
0.004172484806
0.0007570280381
0.0004953698403
0.00409046441
0.0005365365766
0.0003228584363
0.004103987215
0.0006107645685
0.0003910180521
0.004094626339
0.0005385121578
0.0003467303465
0.0040946401
0.0005212451797
0.0003455752803
0.004088085501
0.0004694953142
0.0003202898365
0.00408066024
0.0004290935628
0.0003038784326
0.0003836541567
0.0002833589294
0.004071292011
0.004690630473
0.003876041155
0.004137591111
0.00421205163
0.0006680403667
0.000361146046
0.00426476646
0.0005662276532
0.0005006678245
0.004190847601
0.0004068612352
0.0003251458838
0.004208055137
0.0004537310168
0.0003965929849
0.00420211555
0.0003981586858
0.0003534885944
0.004205377529
0.0003814606966
0.0003550565319
0.004201225066
0.000338551221
0.0003321956161
0.004195834569
0.000303366808
0.000318604999
0.0002637235458
0.0003008470174
0.004188168161
0.004702895825
0.002483030112
0.004203831879
0.004273263968
0.0004553288874
0.0003648895474
0.004329389131
0.0003556431891
0.0005011449556
0.004262109791
0.000252031869
0.0003231170368
0.004281403281
0.0002762479669
0.0003963675511
0.004277806867
0.0002364323509
0.000353711684
0.004282921144
0.0002208842248
0.0003568985904
0.004280470415
0.0001873373315
0.0003355495202
0.004276548589
0.000158315682
0.0003238695772
0.0001257523168
0.0003080459353
0.004269950117
0.00470962483
0.001064583823
0.004240230541
0.004311764785
0.0001950710379
0.000365334516
0.004369859257
0.0001331315004
0.0004990752708
0.004307268056
8.116188053e-05
0.0003193295432
0.004327701944
8.626120912e-05
0.0003934714483
0.004325329429
6.159416086e-05
0.0003509198487
0.00433145811
4.73861721e-05
0.0003549728716
0.004329743932
2.369228665e-05
0.0003344488023
0.004326568675
1.304540945e-06
0.0003238742562
-2.348289355e-05
0.000309191907
0.00432066289
0.00471125895
0.004250784388
-0.0003621762709
0.00432965997
0.0003632502888
-8.76424482e-05
0.004388258134
0.0004959938845
-9.364568104e-05
0.004328194554
0.0003154667663
-9.662940437e-05
0.004348817354
0.0003899921351
-0.0001083878899
0.004346869763
0.0003474842434
-0.0001184290925
0.004353161583
0.0003519213744
-0.0001310568161
0.004351637097
0.0003317476015
-0.000144791413
0.004348667184
0.0003216312973
-0.0001602642444
0.000307385841
0.004342945071
-0.0001768506214
-0.0002120755021
0.003756080244
0.0005658829108
0.0003460045657
-0.0006751640113
9.005862738e-05
0.0002987496724
-5.070637411e-06
-1.097459077e-05
0.0003402734539
-0.0001115016327
-8.731904162e-05
0.0003257609361
-2.551175345e-05
-0.0001098253533
0.0003237339923
-2.928501311e-05
-0.0001368125099
0.0003146452781
-8.422203084e-06
-0.0001441700008
0.0003111145705
-6.620147381e-06
-0.0001511252109
0.0003078922766
-7.29585469e-07
-0.0001518677064
-1.270608033e-07
-0.000152034424
0.0003076754623
0.0004451343694
0.007047425645
0.001041799609
0.001235173709
-0.001592679518
0.0001244682139
0.00102471603
0.0001684698358
-5.961163517e-05
0.001058387941
-0.0002142135903
-0.0001881460407
0.00100253649
-3.275826325e-07
-0.0002297779662
0.0009800879157
-2.83266291e-05
-0.0002788648366
0.000956517317
1.171214235e-05
-0.0002951180899
0.0009434568006
1.254201491e-05
-0.0003106071771
0.0009357000176
2.152729354e-05
-0.0003154567427
2.120188533e-05
-0.0003192219175
0.0009337912586
0.001687092636
0.009181959588
0.001299906883
0.001991019636
-0.002016774446
0.0001476513153
0.001786427711
0.0003716825872
-5.211289063e-05
0.00175798853
-0.0002242817984
-0.0001927061069
0.001675268324
8.237502753e-05
-0.0002421837482
0.001632624288
1.9794274e-05
-0.0003011172452
0.001597132139
6.87964769e-05
-0.0003254264731
0.001576322801
6.243126182e-05
-0.0003488948564
0.001564254561
6.965770904e-05
-0.0003606707064
6.502000965e-05
-0.000370893202
0.001560170354
0.002814437231
0.01025209195
0.001557572195
0.002611352949
-0.001930115064
0.0001956589034
0.002473646465
0.0005438827138
1.125141971e-05
0.002393699059
-0.0001495609869
-0.0001281933877
0.002308061105
0.0002005745314
-0.0001762065145
0.002254261076
0.0001067727114
-0.0002392936535
0.002213546163
0.0001548399189
-0.0002696729622
0.002188204688
0.00013688566
-0.0003004192204
0.00217311737
0.000137977771
-0.000319737168
0.000125982015
-0.0003373069641
0.00216675757
0.003663823938
0.01051903071
0.00186011193
0.003124339019
-0.001517590159
0.0002681595467
0.003052508435
0.0006711308974
0.0001068961517
0.002944843626
-2.779586257e-05
-2.723015185e-05
0.002873701311
0.000324770179
-6.739751938e-05
0.00281948912
0.000210926994
-0.0001305745761
0.002780957678
0.000252191713
-0.0001638257847
0.002755231253
0.0002218668687
-0.0001997405202
0.002739394449
0.0002145069944
-0.0002251124678
0.0001938372006
-0.0002489243864
0.00273142206
0.004252532722
0.01022193503
0.002193571207
0.003549382358
-0.0009665950136
0.0003526535021
0.003525135014
0.0007537258369
0.0002108159601
0.003408405468
0.000104488168
8.288092322e-05
0.0033588487
0.0004315738924
5.41150884e-05
0.003311906676
0.0003098611317
-5.809424249e-06
0.003281131195
0.0003420683077
-3.828676919e-05
0.003258693302
0.0003016635968
-7.625737102e-05
0.003244468237
0.0002857656668
-0.0001048800699
0.0002568322687
-0.0001325364369
0.003236233905
0.004636858757
0.00954219717
0.002530467835
0.003897695473
-0.0004153941696
0.0004385085666
0.003904409243
0.0007935645388
0.000307855575
0.003789716744
0.0002210629518
0.0001852146998
0.003762354313
0.0005058004499
0.0001687730301
0.00372631928
0.0003864858703
0.000114195454
0.003705886664
0.0004097239985
8.541769175e-05
0.003689196507
0.0003628438218
4.837876841e-05
0.003678510555
0.0003398945737
1.945192045e-05
0.0003045661093
-9.380357981e-06
0.00367136575
0.004870760972
0.008609782532
0.002846919021
0.004178032032
4.792589636e-05
0.0005191479376
0.004205087038
0.0007917648151
0.0003909048305
0.004098730697
0.0003055688368
0.0002718742862
0.004090148392
0.0005405464756
0.0002667017485
0.004065545035
0.0004304808784
0.0002180818863
0.004055841211
0.0004457355259
0.0001945730379
0.004045915939
0.0003962060213
0.0001604959374
0.004039738659
0.0003685787318
0.0001334909549
0.0003292100357
0.0001056327034
0.004034940858
0.005000324336
0.007513984935
0.003126644912
0.004399238201
0.0003769184165
0.0005909544542
0.004440709848
0.000749622984
0.0004579419949
0.004345631158
0.0003500745194
0.0003407680419
0.004351767994
0.0005342420088
0.0003447035783
0.004337606951
0.0004372891861
0.0003015094525
0.00433752824
0.000445930333
0.0002835102321
0.004334143355
0.0003971474092
0.0002532412257
0.004332816788
0.0003671544398
0.0002293308212
0.0003266138716
0.0002037177295
0.004330713417
0.005063873954
0.006312946436
0.003361668265
0.004570384088
0.0005577295923
0.0006521297571
0.004622485561
0.0006701679659
0.0005095393053
0.004540078127
0.0003523574423
0.0003928415053
0.004557281824
0.0004889724632
0.0004034500395
0.004551586497
0.0004072124363
0.0003645288131
0.004559464628
0.0004102650598
0.0003513483389
0.004561863284
0.0003648262645
0.0003247906403
0.004564898435
0.0003346964538
0.0003041981521
0.0002952998618
0.0002812473491
0.004565796266
0.005090329963
0.005042283954
0.003549411812
0.004700017324
0.0005992218604
0.0007018894711
0.004760515411
0.0005575416554
0.0005474980644
0.00469068384
0.000314639779
0.0004304076702
0.004715585234
0.0004096597489
0.0004454293727
0.004716692985
0.0003433474041
0.0004094876271
0.004730545492
0.0003419585234
0.0004000293096
0.004737698533
0.0003014521369
0.0003765109235
0.004744472377
0.0002729671481
0.0003588338943
0.0002365640157
0.0003383582347
0.004748208918
0.005099646391
0.003722914957
0.003690613716
0.004795168262
0.0005247999281
0.0007400461069
0.004862205045
0.0004173358987
0.0005738367989
0.004803753614
0.0002422833877
0.0004559537059
0.004833885971
0.0003024770277
0.0004736433486
0.004840021979
0.0002511401933
0.0004395597977
0.004858442354
0.0002459189793
0.0004326757009
0.00486898836
0.0002117476527
0.0004113540936
0.004878741801
0.0001859285336
0.000395890173
0.000154007557
0.0003773627325
0.004884782544
0.005102526964
0.002369573867
0.003787946005
0.004861583903
0.0003639421456
0.0007666903905
0.004933485593
0.0002560714596
0.0005905077053
0.004884289809
0.000142792809
0.0004718033991
0.004917889966
0.0001743328285
0.0004909115936
0.004927555815
0.0001373200137
0.0004578660147
0.004948717801
0.0001290890505
0.0004525665329
0.004961789717
0.0001015819051
0.0004326433522
0.004973666628
7.925604819e-05
0.0004186651519
5.275021273e-05
0.0004014732126
0.004981496695
0.005103625568
0.0009951323252
0.003844446516
0.004903563433
0.0001471562272
0.0007821825687
0.004978206629
8.142756968e-05
0.000599075965
0.004935708472
2.486699441e-05
0.000479753515
0.004971092761
3.294182147e-05
0.0004994781659
0.004982954704
9.461209295e-06
0.0004669167108
0.005005906283
-1.373029627e-06
0.0004624833719
0.005020444786
-2.185353735e-05
0.0004433457417
0.005033615274
-4.024868774e-05
0.000430208505
-6.08091987e-05
0.0004137699791
0.005042596613
0.005102942504
0.003862137598
-0.0003858633878
0.004923546026
0.0007867820145
-9.697902107e-05
0.004998850338
0.0006006046123
-9.84874695e-05
0.004959978203
0.0004809910994
-0.0001017852037
0.004995925438
0.0005008572467
-0.0001138705253
0.005008890093
0.0004684548534
-0.0001244740558
0.005032393518
0.0004643322549
-0.0001372873349
0.005047485359
0.0004454683364
-0.000150666114
0.005061237018
0.000432630343
-0.0001649993916
0.0004164223983
0.005070569464
-0.0001791782027
-0.0003804778749
0.003868616511
0.0004110742752
0.000272829222
-0.0006544281667
9.117969714e-05
0.0002477594187
1.817511436e-05
-4.079901772e-06
0.0003245893932
-0.0001092819171
-5.486709911e-05
0.0003244992913
-2.820062595e-05
-8.153462547e-05
0.0003364739629
-4.251106871e-05
-0.0001062761128
0.0003345231629
-2.388034361e-05
-0.0001183388572
0.0003366015669
-2.488124369e-05
-0.0001283223712
0.0003363796098
-1.8524941e-05
-0.0001331208084
-1.71985669e-05
-0.0001365493639
0.0003380931166
0.0001731014306
0.007273861662
0.0007967930273
0.001155786033
-0.001666118816
0.0001534742609
0.0009779599681
0.0001679031847
-3.15136409e-05
0.001065240241
-0.0002613240818
-0.0001233841492
0.001035371785
-5.055966537e-05
-0.0001775504699
0.001034137722
-9.488608303e-05
-0.0002252557602
0.00102394868
-5.746561853e-05
-0.000251343772
0.001020182316
-5.904456038e-05