/*--------------------------------*- C++ -*----------------------------------*\
| =========                 |                                                 |
| \\      /  F ield         | OpenFOAM: The Open Source CFD Toolbox           |
|  \\    /   O peration     | Version:  2.1.x                                 |
|   \\  /    A nd           | Web:      www.OpenFOAM.org                      |
|    \\/     M anipulation  |                                                 |
\*---------------------------------------------------------------------------*/
FoamFile
{
    version     2.0;
    format      ascii;
    class       volVectorField;
    location    "3500";
    object      U;
}
// * * * * * * * * * * * * * * * * * * * * * * * * * * * * * * * * * * * * * //

dimensions      [0 1 -1 0 0 0 0];

internalField   nonuniform List<vector> 
37500
(
(0.5646277013 0.06720635738 0.02923113723)
(0.3969889839 0.02621856364 0.02927721239)
(0.2319166949 0.002398590811 0.0224452507)
(0.1691249599 -0.0002990929994 0.01733277135)
(0.1340458361 -0.0007617856913 0.01242828117)
(0.1117803422 -0.0005715583358 0.008456897775)
(0.09640779645 -0.0002810585995 0.005455976958)
(0.08525144268 -4.535141566e-05 0.003293028954)
(0.07698727135 0.0001091601046 0.001808574259)
(0.07084795425 0.0001908734364 0.0008417513615)
(0.8696713196 0.1623143389 0.04613809527)
(0.78854646 0.09881501433 0.05778711512)
(0.5601758708 0.03624540889 0.0478090023)
(0.4280576349 0.01333060474 0.03784905637)
(0.342029686 0.005070858327 0.02795004132)
(0.2846328841 0.00243085036 0.01957254786)
(0.2447596141 0.001798896846 0.01304429127)
(0.2160919799 0.001774654786 0.008223708672)
(0.1950783514 0.001838318739 0.004832316909)
(0.1795653129 0.001821820033 0.002556293392)
(0.9466225182 0.1610161081 0.04652152216)
(0.9592829147 0.1253715735 0.06630975239)
(0.7649256936 0.06565340503 0.05983536418)
(0.6158820549 0.03201912987 0.04942773198)
(0.5018369273 0.01498515479 0.03763686794)
(0.4198846888 0.007653617847 0.02704896487)
(0.3612462671 0.004956368234 0.01850985471)
(0.3188142051 0.004161772284 0.01205747764)
(0.2877807079 0.003967369889 0.007425464527)
(0.2649475266 0.003828666843 0.004246754741)
(0.9565960318 0.1319860022 0.04579876235)
(1.015429499 0.1270476398 0.06805840481)
(0.8715628729 0.08365652247 0.06461020806)
(0.7365310168 0.04855836993 0.05520212377)
(0.6163658213 0.0259918815 0.04322613302)
(0.5221869984 0.01414151774 0.03183166057)
(0.4515245591 0.008778428353 0.02230051731)
(0.3992845098 0.006694840323 0.01492308595)
(0.3607939305 0.005960373942 0.009527233253)
(0.3324300795 0.005598700503 0.005756138844)
(0.9513028997 0.1033335033 0.04615981832)
(1.018189348 0.115683439 0.06784910102)
(0.913194124 0.08933804924 0.0658242275)
(0.8020999957 0.0588519114 0.05738377005)
(0.6898616271 0.03499440969 0.04587098715)
(0.5942825788 0.02030294019 0.03446031311)
(0.5185303219 0.01254111181 0.02461399574)
(0.4607233279 0.008971133215 0.01682104555)
(0.4174318692 0.007475517353 0.01102625135)
(0.3852891679 0.006772327071 0.006917601151)
(0.9453929373 0.07992677629 0.04695616552)
(1.001097978 0.09929866093 0.06734141779)
(0.9183906955 0.08616781695 0.06562191814)
(0.8289543206 0.06252103836 0.05763891994)
(0.7301366617 0.04044748611 0.04660731832)
(0.640113905 0.02490680568 0.03549061851)
(0.564945136 0.01559655286 0.02570984263)
(0.5055087709 0.01072812841 0.01783706122)
(0.4600023282 0.008414794991 0.01190454264)
(0.4257870399 0.007286330858 0.007652677883)
(0.9415104058 0.06153123806 0.04772455419)
(0.9803392803 0.08245609543 0.06699293855)
(0.9069569918 0.0779944649 0.06505162621)
(0.8324570493 0.06092970616 0.05704748409)
(0.7467414427 0.04216502846 0.0462725518)
(0.6651706443 0.02735294802 0.03547108773)
(0.5941354944 0.01750088348 0.02591081827)
(0.5360677891 0.0117846183 0.01814326027)
(0.490539463 0.008776045225 0.01223721405)
(0.4557726591 0.007215222385 0.007973191093)
(0.9392309566 0.04729308721 0.04834306525)
(0.9621489999 0.06719874527 0.06685012321)
(0.890422859 0.06769702291 0.06453594552)
(0.8242357187 0.05589348792 0.05621930799)
(0.748642538 0.0407759354 0.04545796544)
(0.6755017421 0.02762760557 0.03486624397)
(0.6100529869 0.01808550455 0.02554041771)
(0.5551322913 0.01205272552 0.01795106378)
(0.5111296096 0.008594178222 0.01215601453)
(0.4769903962 0.006677190382 0.007954413886)
(0.9378412211 0.03626432219 0.04881585083)
(0.9479859721 0.05403627344 0.06685055066)
(0.8743897119 0.05697519819 0.06419045352)
(0.8117448586 0.04897182665 0.05544593204)
(0.7428382166 0.03718585129 0.0445270671)
(0.6766220276 0.02608038837 0.0340171951)
(0.6167036783 0.01742304725 0.02487372955)
(0.5655791514 0.01154687945 0.01746529283)
(0.5239312095 0.00792653927 0.01180822782)
(0.4911713666 0.005787769886 0.00770049711)
(0.9369039874 0.02760480194 0.04917069239)
(0.9374917918 0.04280158247 0.06692642053)
(0.8609619152 0.04663821014 0.06400475834)
(0.7990712568 0.04123587307 0.05483243383)
(0.734036274 0.03223330468 0.04367099115)
(0.6728331556 0.02319372983 0.03314171355)
(0.6175734892 0.01573252098 0.02411107344)
(0.5701031634 0.01036479076 0.01685239407)
(0.5310304062 0.006849276449 0.01132650177)
(0.4999849144 0.004645508521 0.007315748743)
(0.9362261029 0.02066339608 0.04943535331)
(0.9298962436 0.03312073343 0.06703107326)
(0.8505308823 0.03695340872 0.06393159597)
(0.788084962 0.03330043508 0.05439026088)
(0.7250116094 0.02654399344 0.0429686467)
(0.6671183639 0.01942565288 0.03236021381)
(0.6153855789 0.01328299296 0.02338279753)
(0.5709911924 0.008649243156 0.01623283468)
(0.534291847 0.005451073717 0.0108149091)
(0.5049600037 0.003330809308 0.006888524766)
(0.9357317874 0.01494957647 0.04962996538)
(0.9245203946 0.02461073879 0.06713730712)
(0.842839639 0.02791688095 0.06392480028)
(0.7794206947 0.02545409226 0.05409342053)
(0.7171919593 0.02051707821 0.04243735771)
(0.661326448 0.01513170633 0.03172743526)
(0.6120570649 0.01032390016 0.02276319762)
(0.5700071499 0.006551515759 0.01568411098)
(0.535253013 0.003821731628 0.01034615484)
(0.5074139168 0.001908298383 0.006485127651)
(0.9353821027 0.01009118004 0.04976593838)
(0.9208519541 0.01693737505 0.06722638385)
(0.8374764264 0.01941141099 0.06394657822)
(0.7731292707 0.01778875965 0.05390648945)
(0.7111794227 0.01437212995 0.04206497838)
(0.6564734483 0.01055387095 0.03125945084)
(0.6087938567 0.007052014435 0.02228679475)
(0.5683776537 0.004204192363 0.01524921424)
(0.5350573796 0.002041510628 0.009965067214)
(0.5083672947 0.0004279135443 0.006148904223)
(0.9351594155 0.005796923702 0.04985227141)
(0.9185652139 0.009822294772 0.06728963087)
(0.8340888122 0.01128587664 0.06397257519)
(0.7690579909 0.01029515095 0.05379828487)
(0.7071518942 0.008208968686 0.04183037074)
(0.6530534743 0.005839790723 0.03095296503)
(0.606297966 0.003607148548 0.02196583773)
(0.5668886706 0.001711424349 0.0149491208)
(0.5344882364 0.0001758874407 0.009695961554)
(0.5085624345 -0.001074740782 0.005905429744)
(0.9350519442 0.001822619799 0.04989433581)
(0.9174689629 0.003027437983 0.0673224368)
(0.8324497728 0.003387280443 0.06398877164)
(0.7670627951 0.002918034768 0.05374920303)
(0.7051364863 0.002060144231 0.04171748131)
(0.6512853937 0.001072162859 0.03080092687)
(0.6049416729 8.30106704e-05 0.02180279709)
(0.5659980491 -0.0008496593035 0.01479259782)
(0.5340344179 -0.001725219381 0.009550867034)
(0.5084743489 -0.002575037792 0.005768179611)
(0.5924407905 0.07414321225 0.03830899921)
(0.434160897 0.03264088635 0.04418064533)
(0.2841555584 0.007728546278 0.03977363714)
(0.2292132735 0.003654673396 0.03282523866)
(0.1981610235 0.002123472722 0.0256284631)
(0.1772718648 0.001457309345 0.01908457556)
(0.1616619155 0.001095982131 0.01356688446)
(0.1493199414 0.0008557887459 0.009166247066)
(0.1393626376 0.0006822380061 0.005824499993)
(0.1313061633 0.0005502735537 0.003395015445)
(0.9269152264 0.1806998958 0.05959103562)
(0.8937161443 0.118809899 0.08397281768)
(0.7135927887 0.05428273237 0.08582474925)
(0.6066296061 0.02773688825 0.0771095151)
(0.5327829402 0.01612833028 0.06431598649)
(0.4791554577 0.01063858871 0.05082501954)
(0.4380414976 0.007726492642 0.03837885511)
(0.4052858997 0.005975866893 0.02776604911)
(0.3787346774 0.004810861509 0.01922937131)
(0.3571241816 0.003966101779 0.01267458471)
(1.013518056 0.1807639196 0.06527282268)
(1.101915593 0.152653989 0.0990413232)
(0.9874874564 0.09491593288 0.1084177544)
(0.8868926949 0.05874551142 0.1035715142)
(0.799010705 0.03733387004 0.0911541618)
(0.7273840112 0.02523453586 0.07564135142)
(0.6691803592 0.0182331334 0.05989521772)
(0.621441092 0.01394822361 0.04554135439)
(0.5821019364 0.01114334198 0.033361958)
(0.5497103664 0.009165494384 0.02356046116)
(1.024422798 0.148168058 0.0663612881)
(1.172215928 0.1552771533 0.1033639911)
(1.130490129 0.1184890227 0.1174886451)
(1.066187976 0.08403736764 0.1168719717)
(0.9898684631 0.05825986075 0.1071983309)
(0.9173863264 0.04120070627 0.09266303278)
(0.8530204796 0.03023434874 0.0764098328)
(0.7974232428 0.02312542543 0.06056387041)
(0.7501449878 0.01836802907 0.04638824215)
(0.7104010243 0.01501948484 0.03445312929)
(1.018418368 0.1154025749 0.06654105971)
(1.176785972 0.1408716202 0.1037185164)
(1.185702231 0.1243540153 0.1198858784)
(1.161388775 0.09793892147 0.1219285779)
(1.109359167 0.07333971018 0.1149202175)
(1.048855413 0.05454664209 0.1023943168)
(0.9885666325 0.04112176535 0.08718965181)
(0.9326567527 0.0317692478 0.07147371987)
(0.8828909928 0.02523119489 0.0567328222)
(0.8397507356 0.02053861308 0.04380292539)
(1.012485389 0.0887958378 0.06674566694)
(1.15716213 0.1201029544 0.1030728542)
(1.192323146 0.1180538595 0.1196222615)
(1.198432871 0.100942828 0.1226787401)
(1.171592999 0.08069085577 0.1173001124)
(1.12862183 0.06296688889 0.1065459768)
(1.079011227 0.04897360584 0.09281019443)
(1.028800417 0.03847369627 0.07803073204)
(0.9814827577 0.03073490471 0.06366514945)
(0.9388211362 0.0249922699 0.05064321966)
(1.009236596 0.06813964551 0.06703455478)
(1.133563544 0.09905274241 0.1024702225)
(1.17768236 0.1053668406 0.1186819191)
(1.201756142 0.09598971572 0.1216543386)
(1.19453868 0.08094445032 0.1168398757)
(1.168568642 0.06590040052 0.1071368644)
(1.131859711 0.0528585395 0.09460696529)
(1.090638708 0.04235089788 0.08090291016)
(1.049156289 0.03417102785 0.06731835074)
(1.010024411 0.02785319636 0.05473706422)
(1.007755689 0.05230196822 0.06732836265)
(1.113464655 0.0802879442 0.1021248654)
(1.157316096 0.09039873214 0.1178439507)
(1.189321657 0.08632802276 0.120206602)
(1.194544123 0.07592366228 0.1152196965)
(1.1817938 0.06403774389 0.105860389)
(1.156905101 0.05280614818 0.09403344836)
(1.125284625 0.04314653314 0.08117027753)
(1.091107885 0.03522258668 0.06837715244)
(1.05728035 0.02884299014 0.05642356523)
(1.007038254 0.04009157182 0.06758475179)
(1.098269794 0.06432093579 0.1019855657)
(1.138315277 0.07540871839 0.1172972513)
(1.172062458 0.07448099484 0.1189166047)
(1.183692463 0.06760615579 0.1133824806)
(1.179637471 0.05863426536 0.1038733257)
(1.163844187 0.04947754549 0.09228021181)
(1.1406142 0.04113621328 0.07990880062)
(1.113589878 0.03396093533 0.06771437728)
(1.085547719 0.0279486581 0.05634275791)
(1.00658477 0.03051560025 0.06779148969)
(1.087277613 0.05082657877 0.1019652865)
(1.122968924 0.06134013897 0.1170060736)
(1.155483662 0.06201206079 0.1179503107)
(1.169531037 0.05756814957 0.1117604347)
(1.170361609 0.05096608048 0.1018431725)
(1.160672123 0.043772518 0.09015943142)
(1.14381408 0.03689620565 0.07796952551)
(1.122793926 0.03073294613 0.06613080858)
(1.100052471 0.02537588147 0.0551875262)
(1.006233114 0.02283739428 0.06795281675)
(1.07944491 0.03927094575 0.1020007474)
(1.111405128 0.04840116138 0.116883643)
(1.141730171 0.0497003708 0.117291978)
(1.156051697 0.04683516106 0.1104910213)
(1.159164941 0.04204184941 0.1000879714)
(1.153097886 0.03654107049 0.08814435619)
(1.140561406 0.03107781628 0.07592522945)
(1.124031342 0.02601002941 0.0642364721)
(1.10558234 0.02145820308 0.05355112045)
(1.005952663 0.01651668907 0.06807570112)
(1.073938305 0.02915205854 0.1020555676)
(1.103062299 0.03647507546 0.1168545396)
(1.131251428 0.03782621283 0.1168702941)
(1.144964648 0.03596214366 0.1095711698)
(1.148867761 0.03252969257 0.09871617651)
(1.144699203 0.02843866999 0.08646417878)
(1.134817129 0.02425469635 0.07410818163)
(1.121331781 0.02026018012 0.06243273746)
(1.106023294 0.0165625337 0.0518671319)
(1.005743213 0.01114578068 0.06816304232)
(1.070197016 0.02005330789 0.1021085293)
(1.097327789 0.02533865825 0.1168665184)
(1.123832029 0.02640823167 0.1166135647)
(1.136760145 0.025186381 0.1089476141)
(1.140752379 0.02280646765 0.09773141856)
(1.13745111 0.01989940455 0.08520109803)
(1.129049186 0.01685579073 0.07268087058)
(1.117448008 0.01387132746 0.06095066397)
(1.104228559 0.01102146402 0.05041515331)
(1.005605641 0.006402680336 0.0682188697)
(1.067868986 0.01163424535 0.1021480173)
(1.09373872 0.01475306073 0.1168873992)
(1.119117777 0.01535184623 0.1164675761)
(1.131418604 0.01456310525 0.1085630265)
(1.135272847 0.01304780856 0.0970996297)
(1.132302087 0.01117379534 0.08436435824)
(1.124636387 0.009164313267 0.07170587055)
(1.114073585 0.007127318818 0.0599050153)
(1.102082449 0.005100047023 0.04935393282)
(1.005538038 0.00201700788 0.06824629529)
(1.066750452 0.00360569339 0.1021676134)
(1.092006313 0.004491701803 0.1168990595)
(1.116823602 0.004521450104 0.1163981249)
(1.128784167 0.004058701136 0.1083749221)
(1.132514282 0.003310801328 0.09678431057)
(1.129632895 0.002387742583 0.08393808459)
(1.122252211 0.001350358966 0.07119686891)
(1.112129773 0.0002200849842 0.05934286547)
(1.100687671 -0.001005360939 0.04876214497)
(0.5887027008 0.072936403 0.01889046624)
(0.4264346109 0.03020332558 0.02551067866)
(0.2845201738 0.006086589873 0.02638769338)
(0.2360803559 0.002347381081 0.02412771031)
(0.2106436331 0.001085606655 0.02046751815)
(0.194436041 0.0006500684991 0.01641713021)
(0.1824849154 0.0004840286135 0.01251473724)
(0.1728456021 0.0004103629693 0.009048238743)
(0.164757677 0.0003745986002 0.006134055438)
(0.1578882249 0.0003514998514 0.003779240929)
(0.9228953858 0.1790900196 0.02884484674)
(0.8837991988 0.1143447653 0.04868168273)
(0.7195795516 0.05113065597 0.05777636997)
(0.6293054151 0.02545661149 0.05821420997)
(0.5708444607 0.01440840411 0.05337169225)
(0.5302535673 0.009315842097 0.04591733593)
(0.499455038 0.006717475275 0.03758606111)
(0.474407014 0.00524362103 0.02945360993)
(0.4532657907 0.004329135698 0.02210981466)
(0.4351666345 0.003702839021 0.01580730939)
(1.009972075 0.1791226521 0.03105980544)
(1.091876164 0.1478450086 0.05740580901)
(0.9974803972 0.09186418072 0.07313061094)
(0.9207585728 0.05705905339 0.07855449242)
(0.8567122073 0.03656398488 0.07634868259)
(0.8061113345 0.02497853064 0.06933180195)
(0.7649969735 0.01824345405 0.05981906329)
(0.7303135266 0.01412201703 0.04950691024)
(0.7003643694 0.01145217607 0.03949472616)
(0.6742728571 0.009600966823 0.03039957641)
(1.02120294 0.1469647203 0.03116205176)
(1.161876845 0.1510572571 0.05988643403)
(1.141977049 0.115978468 0.07931317551)
(1.105612266 0.08320453918 0.08864048211)
(1.059337136 0.05882938335 0.08984440828)
(1.014812165 0.04262933425 0.08513511111)
(0.9741235872 0.03204622912 0.07666982805)
(0.9372488111 0.02504032649 0.06630117766)
(0.9039046477 0.02026499521 0.0554146345)
(0.8739037631 0.01686313996 0.04492400327)
(1.015332961 0.114621864 0.03094425589)
(1.165875042 0.1374153761 0.06011639234)
(1.197147897 0.1223673388 0.08115937945)
(1.202386978 0.09771837934 0.09259952234)
(1.184003254 0.07493549804 0.09631707181)
(1.15645659 0.05747545233 0.09401823678)
(1.125394907 0.04477233585 0.08744139304)
(1.093576547 0.03566261466 0.07824390502)
(1.062482523 0.02908009817 0.06780968056)
(1.032999058 0.02420541435 0.05716479819)
(1.009441269 0.08830304169 0.03080849714)
(1.145626898 0.1173706354 0.0597660096)
(1.203167659 0.1165156549 0.08133210754)
(1.238996003 0.1010703351 0.09352817494)
(1.247257747 0.08284158476 0.09853775804)
(1.240082596 0.06685426904 0.09789694073)
(1.223572329 0.05400231544 0.09302892438)
(1.201792492 0.04404699216 0.08531050869)
(1.17744183 0.03640535215 0.0759585482)
(1.152345328 0.03048353947 0.0659452748)
(1.006200712 0.06783167975 0.03075234691)
(1.121490856 0.09695299717 0.05938202062)
(1.187916544 0.1042123317 0.08103751781)
(1.24125735 0.09629017272 0.09324309188)
(1.269255131 0.08325975286 0.09861399452)
(1.280149205 0.07017261622 0.09876212808)
(1.278650433 0.05861953304 0.09499268645)
(1.268761554 0.0489977677 0.08848114628)
(1.253563067 0.04116349198 0.08025530656)
(1.235374313 0.03479599345 0.07115769544)
(1.004713716 0.05211342553 0.03072503653)
(1.100975338 0.07871811555 0.0590715464)
(1.16712776 0.08957436817 0.08070573314)
(1.227845568 0.0867114633 0.09262299848)
(1.267776049 0.0781569377 0.09782791854)
(1.2918246 0.06824854626 0.09811570207)
(1.302839869 0.05869573274 0.09482350091)
(1.304042375 0.0501911685 0.08904153156)
(1.298267576 0.04287136325 0.08166382582)
(1.287873343 0.03663659688 0.07340509448)
(1.003980874 0.03997894571 0.03070316988)
(1.085465183 0.06317769087 0.05882343328)
(1.147895601 0.07486079895 0.08043646064)
(1.20993124 0.07490537252 0.09201150231)
(1.255621965 0.06963078524 0.09683482784)
(1.287756095 0.06249873042 0.09689202489)
(1.307656877 0.05503868744 0.09362695771)
(1.317641485 0.04798970013 0.08813280861)
(1.320031829 0.04160951407 0.08123970803)
(1.316939554 0.03592955239 0.07357208097)
(1.003507984 0.03044988525 0.03068133661)
(1.074230459 0.05001403837 0.05861827386)
(1.132445159 0.06100903949 0.08022694455)
(1.19300631 0.06244963211 0.09150422639)
(1.240572874 0.05932821945 0.09591320298)
(1.276849803 0.05432879787 0.09558892553)
(1.30220943 0.04870754544 0.09209808981)
(1.318271781 0.04312020839 0.08658352309)
(1.326853618 0.03783659756 0.07986362534)
(1.329735138 0.03294010735 0.07251542052)
(1.003137094 0.02279918097 0.03066097196)
(1.066208863 0.03870713919 0.05844851255)
(1.120841266 0.04822471292 0.08006029899)
(1.179116346 0.05012033114 0.09110666157)
(1.226592583 0.04830406913 0.09515232637)
(1.264499043 0.04482746382 0.0944313597)
(1.29273522 0.04067766037 0.0906169034)
(1.312508238 0.03638226775 0.08491456781)
(1.325271519 0.0321692845 0.07815986128)
(1.332519159 0.02812397799 0.07091374306)
(1.002840426 0.01649436479 0.03064407242)
(1.060556858 0.02877150214 0.05831255872)
(1.112482928 0.03639500097 0.07992719272)
(1.168610596 0.03819270821 0.09080339307)
(1.215271657 0.03712017899 0.09456323745)
(1.253485991 0.03470269378 0.09349857474)
(1.282965439 0.03168548377 0.08936152787)
(1.304726749 0.02846470327 0.08341388561)
(1.320019738 0.02520941509 0.07651779609)
(1.330147787 0.02198324505 0.069235777)
(1.002619004 0.01113217348 0.03063053993)
(1.056709425 0.01980810127 0.05821030262)
(1.106739972 0.02530659267 0.07982460039)
(1.161207077 0.02668599371 0.09058044884)
(1.206985026 0.02601383326 0.09413280497)
(1.244975664 0.02434779592 0.09280409553)
(1.274830985 0.02221047559 0.08839849442)
(1.297506961 0.01987393687 0.08221921093)
(1.314165084 0.01744812495 0.07515303451)
(1.326008087 0.01496892293 0.06777050442)
(1.002473626 0.006393441656 0.03062056513)
(1.05431229 0.01149212649 0.05814079261)
(1.103144418 0.01473450391 0.07975209905)
(1.156514071 0.01551161035 0.09042924647)
(1.201625345 0.01504204641 0.09384562043)
(1.239298028 0.01394471421 0.09233842334)
(1.269169148 0.01252619503 0.08774178882)
(1.292186537 0.01093966159 0.08138465114)
(1.309486218 0.009240177951 0.07417064134)
(1.322229023 0.007437248934 0.066677564)
(1.002402022 0.002010196803 0.03061467293)
(1.053159194 0.003548262507 0.05810298642)
(1.101407383 0.004466115 0.07970981761)
(1.154231343 0.004544836255 0.09034518106)
(1.198989308 0.004176650126 0.09369083031)
(1.236455829 0.003555089342 0.0920890846)
(1.266263686 0.002770180958 0.08738722869)
(1.289364807 0.001858780016 0.08092529858)
(1.306891416 0.000823627224 0.07361437079)
(1.319991895 -0.0003493633016 0.06603488135)
(0.5871066799 0.07352582866 0.01285507347)
(0.4195774404 0.03077295663 0.02036583958)
(0.2767747387 0.006718311709 0.02244703332)
(0.2289952894 0.002863335166 0.02137601876)
(0.2054036129 0.001502512453 0.01882372656)
(0.1915841782 0.0009628599316 0.01562949445)
(0.1821807302 0.0006965377684 0.01229104344)
(0.1750177512 0.0005345703997 0.009117677343)
(0.1691882994 0.0004267075515 0.006277951713)
(0.1642808718 0.0003490648978 0.003841356946)
(0.921512653 0.1799550824 0.0192605431)
(0.8724062432 0.1151592281 0.03778034625)
(0.704337115 0.05191131661 0.04768684861)
(0.6145728682 0.02600662152 0.05012027531)
(0.5600303953 0.01479565747 0.04774786319)
(0.5251614597 0.009530515525 0.04258099969)
(0.5007895839 0.00674545648 0.03603940893)
(0.4821787972 0.005092019652 0.02910442831)
(0.4670454127 0.004024331277 0.02240156849)
(0.4542746567 0.003282121622 0.01628532542)
(1.009351294 0.1801036476 0.02071559365)
(1.080164424 0.1486595711 0.04421663471)
(0.9803207063 0.09245192503 0.05951850211)
(0.9031666866 0.0571883608 0.06656474963)
(0.8436161177 0.03646318791 0.06718609905)
(0.8005898443 0.02472058297 0.06326004279)
(0.7685380251 0.01781748981 0.05649834955)
(0.7432768601 0.01351162953 0.04829631955)
(0.7223604603 0.01066419163 0.03967271923)
(0.7044629133 0.008665926577 0.03130076896)
(1.020990288 0.1477722019 0.02093021614)
(1.150751323 0.1516074034 0.04632366329)
(1.125168633 0.1162334367 0.06435392603)
(1.087684193 0.08282874848 0.0746159746)
(1.045766134 0.05813546255 0.07837700474)
(1.009560579 0.04180539715 0.07692295272)
(0.9794765708 0.03113338117 0.07169347878)
(0.9540908951 0.02401450414 0.06407989725)
(0.9320999703 0.01910071619 0.05524797485)
(0.9126593319 0.01555936155 0.0460727114)
(1.015220903 0.1151655692 0.02095290603)
(1.155067046 0.1376156027 0.04699205291)
(1.181015004 0.1222751375 0.06617601845)
(1.184906765 0.09690502223 0.07805669324)
(1.170616238 0.0737183348 0.08391604289)
(1.151508466 0.05613459646 0.08467295565)
(1.131760227 0.04343199777 0.08139571564)
(1.11268224 0.03432619806 0.0752366553)
(1.094572379 0.0277032956 0.06727513348)
(1.077487603 0.02274806594 0.05841132591)
(1.009315579 0.08861250635 0.02098044878)
(1.134745159 0.1172537079 0.04726964071)
(1.187358793 0.1161235609 0.06691546105)
(1.22188874 0.09993482794 0.07938441599)
(1.234073745 0.08123550686 0.08626070413)
(1.235191566 0.0651024385 0.08840743216)
(1.230159064 0.05231171462 0.08668344035)
(1.221709042 0.04247750065 0.0820048989)
(1.211326998 0.0349223468 0.07527401829)
(1.19991127 0.02902224489 0.06729590905)
(1.006049476 0.06797206353 0.02100331724)
(1.110329642 0.0966116345 0.04743379438)
(1.172051435 0.1036092187 0.06731619759)
(1.22421626 0.09496822636 0.07988924117)
(1.256079676 0.08142799596 0.08706979648)
(1.275060321 0.06815477975 0.08983917131)
(1.284906511 0.05667974613 0.08902687482)
(1.288460779 0.04725920193 0.08542174575)
(1.28766632 0.0396259441 0.07977648921)
(1.283898271 0.03339476207 0.07277209551)
(1.004550339 0.05214707487 0.02100458712)
(1.089494864 0.07825516582 0.04752183813)
(1.150991562 0.08886232519 0.0675865528)
(1.210621673 0.08533469482 0.0801055987)
(1.254430704 0.07626244557 0.08723888469)
(1.286389922 0.06612619167 0.09012841382)
(1.308499607 0.05663166474 0.08967934546)
(1.32297443 0.04835759179 0.08665836014)
(1.331633024 0.04131206553 0.08173892631)
(1.335938834 0.03530630426 0.07550674255)
(1.003814916 0.03995162907 0.02098628511)
(1.073707828 0.06267860514 0.04753809163)
(1.131424769 0.07412998708 0.06775947449)
(1.192400162 0.07358254964 0.08020498589)
(1.242012759 0.06781209817 0.08717022793)
(1.281941237 0.06042341674 0.08992686475)
(1.312680561 0.05298290948 0.08948907408)
(1.335642344 0.04615015385 0.08666314355)
(1.352247956 0.04006667735 0.0821048235)
(1.363799392 0.03466630425 0.07634917004)
(1.003342942 0.03039343573 0.02095748826)
(1.062258348 0.04953770761 0.04749962759)
(1.115661935 0.06032579229 0.06784233717)
(1.17514478 0.06125832335 0.0802303566)
(1.226681125 0.0576867422 0.08701686249)
(1.270692882 0.05242269746 0.08955234803)
(1.306685163 0.04678039864 0.08894997227)
(1.335414844 0.04136769562 0.08607696007)
(1.357886445 0.0363594342 0.08160716238)
(1.375156507 0.03174638101 0.07606117623)
(1.002973053 0.02273354011 0.0209259099)
(1.054078511 0.03828933951 0.04743116263)
(1.103802053 0.04763109829 0.06785439784)
(1.160957029 0.04910745334 0.08019811111)
(1.212444177 0.0469037554 0.08683289442)
(1.258067674 0.04317575649 0.08914524284)
(1.296795306 0.03897343693 0.08832056688)
(1.32897117 0.03479969223 0.08528369997)
(1.355289773 0.03081119771 0.08073966989)
(1.376591995 0.02701312836 0.07521507217)
(1.002676819 0.01643207423 0.02089698456)
(1.048313104 0.02843117209 0.04735442474)
(1.095249181 0.03591338687 0.06782295615)
(1.150209927 0.03738168367 0.08012846931)
(1.200913098 0.03599495246 0.086643991)
(1.246849762 0.03335650437 0.08876642414)
(1.286735695 0.03026841328 0.08772711024)
(1.320702077 0.02711625105 0.08449441557)
(1.349263372 0.0240185136 0.07980320692)
(1.373117761 0.02097547219 0.0741935015)
(1.002455343 0.01108090036 0.02087269797)
(1.044387586 0.01955438676 0.04728484499)
(1.089368067 0.02494677588 0.06777371649)
(1.142627145 0.02608540896 0.08004462378)
(1.192468098 0.02517696726 0.08647041625)
(1.238194033 0.02333283939 0.0884463773)
(1.278410288 0.02111876758 0.0872301625)
(1.313158079 0.01880309802 0.08381819301)
(1.342867558 0.01646179983 0.07896752819)
(1.368164316 0.01408479921 0.07323083428)
(1.002309747 0.006357716466 0.02085469722)
(1.041941162 0.01132889337 0.04723132378)
(1.085683505 0.01449941399 0.06772559008)
(1.137815357 0.01512219669 0.07996764484)
(1.18700077 0.01449617 0.08633011517)
(1.232420345 0.01327126478 0.08820395789)
(1.272629254 0.01177948987 0.08685970674)
(1.307636455 0.01017217487 0.08330911907)
(1.337842556 0.008483544581 0.07832234982)
(1.363844893 0.00669319503 0.07245991486)
(1.00223785 0.001992291455 0.02084399823)
(1.040763923 0.003476726666 0.04719887332)
(1.083901595 0.004356150931 0.06769039791)
(1.135470906 0.004364893856 0.07991232876)
(1.184306006 0.003920884611 0.08623696149)
(1.22952308 0.003225911533 0.08805156268)
(1.269655443 0.002376950631 0.08663117449)
(1.304702793 0.001407574816 0.08299298887)
(1.335057465 0.0003106012757 0.07791171686)
(1.361308805 -0.0009426492376 0.07194973513)
(0.5859936921 0.07357413639 0.008444806026)
(0.4152472715 0.03041917571 0.01415277818)
(0.271367285 0.006343339677 0.01617210752)
(0.2231724383 0.002469853189 0.01591234461)
(0.1998387667 0.001129072423 0.0144432308)
(0.1867284772 0.0006234194239 0.01232951029)
(0.1783199108 0.0003951874111 0.009943158473)
(0.1722986348 0.0002720595584 0.007534501452)
(0.1676452991 0.000201108395 0.005256739315)
(0.1638692563 0.0001565261791 0.003191833518)
(0.9203575417 0.1801062691 0.01246310701)
(0.8651358363 0.1145250796 0.0258925092)
(0.6934827573 0.05099065415 0.03394986639)
(0.6017823404 0.02489127354 0.0369233463)
(0.5470984566 0.01362247262 0.03630178653)
(0.5134451221 0.008365164656 0.03333032611)
(0.4912203524 0.005619092395 0.0289814762)
(0.4753124096 0.004022178704 0.02398277766)
(0.4631225863 0.003019315809 0.01883749702)
(0.453301032 0.00234291788 0.01386788007)
(1.008530549 0.1803526701 0.01326408518)
(1.072432187 0.1480489454 0.0299990941)
(0.9677261571 0.09135702291 0.04195056552)
(0.8871694961 0.0556003608 0.04855829545)
(0.8265091318 0.03460043932 0.05059565096)
(0.7844144723 0.02273669719 0.04907499591)
(0.7548542031 0.01580527662 0.04506951814)
(0.7331234481 0.01152558297 0.03954004202)
(0.7163006462 0.008734129733 0.03324412212)
(0.7026831571 0.006804528605 0.02673050491)
(1.020347607 0.1479822513 0.01332564925)
(1.143204621 0.1510185037 0.03125214427)
(1.112545968 0.1151086958 0.0450680641)
(1.070841437 0.08099309252 0.0540496647)
(1.026891486 0.05578271722 0.05858220256)
(0.990944814 0.03914426989 0.05922059472)
(0.9631044632 0.02832783631 0.05677000973)
(0.9414388159 0.02117306975 0.05211428759)
(0.9240941113 0.0162862538 0.04605893131)
(0.9097519056 0.01280175148 0.03926262998)
(1.014592096 0.1152647296 0.01330647819)
(1.147619496 0.1369843912 0.03164972927)
(1.168759208 0.1211419647 0.04623478968)
(1.168222213 0.09496536913 0.05636494695)
(1.151361531 0.07108403972 0.06247386746)
(1.131873131 0.053011044 0.06488751253)
(1.113867835 0.04002867243 0.0641353165)
(1.098281913 0.03080437441 0.0608900105)
(1.084895056 0.02416520579 0.05584505426)
(1.073262578 0.01924706668 0.04963273299)
(1.008640707 0.08860385171 0.0133069454)
(1.127187629 0.1165556537 0.03185852011)
(1.175309143 0.1149744284 0.04678719467)
(1.205518929 0.09797595083 0.05734980095)
(1.214972274 0.07849282381 0.06420526603)
(1.215307662 0.06173823117 0.06768359759)
(1.211542334 0.04854347424 0.06819287158)
(1.206190428 0.03850047579 0.06623616439)
(1.200320002 0.03087401871 0.06235803103)
(1.194361416 0.02498233487 0.05709066932)
(1.005328981 0.06788708384 0.01330767855)
(1.10254561 0.09586579752 0.03201715042)
(1.159956972 0.1024520918 0.04718022454)
(1.207976567 0.09304987685 0.05787872726)
(1.237169337 0.07871284754 0.06498447417)
(1.255208941 0.06474853022 0.06893730973)
(1.266001737 0.0527781441 0.07015842517)
(1.272278641 0.04306583275 0.06908062418)
(1.275672929 0.03530038349 0.06614522338)
(1.277160738 0.0290385601 0.06178355252)
(1.003799131 0.05201915151 0.01329462434)
(1.081468831 0.07750249729 0.03212136769)
(1.138691357 0.08772689933 0.04749958541)
(1.194291064 0.08350907448 0.05825869678)
(1.23556369 0.0736801106 0.06539759592)
(1.266584978 0.06284131214 0.06947193648)
(1.289487121 0.05280304217 0.07097986305)
(1.306413757 0.04417459281 0.07036258202)
(1.318949871 0.03693863261 0.06802090179)
(1.328231536 0.03085595913 0.06432186552)
(1.003044468 0.03980713679 0.01326960796)
(1.065475601 0.06196190458 0.03216290108)
(1.118865919 0.07305745436 0.04773317776)
(1.175838211 0.0718987476 0.05855173684)
(1.223033802 0.0654431311 0.06566313466)
(1.26210078 0.05738595634 0.0696989242)
(1.293600043 0.0493954674 0.0712427099)
(1.318860412 0.0421737129 0.07078129951)