/*--------------------------------*- C++ -*----------------------------------*\
| =========                 |                                                 |
| \\      /  F ield         | OpenFOAM: The Open Source CFD Toolbox           |
|  \\    /   O peration     | Version:  2.1.x                                 |
|   \\  /    A nd           | Web:      www.OpenFOAM.org                      |
|    \\/     M anipulation  |                                                 |
\*---------------------------------------------------------------------------*/
FoamFile
{
    version     2.0;
    format      ascii;
    class       volVectorField;
    location    "3500";
    object      Ua;
}
// * * * * * * * * * * * * * * * * * * * * * * * * * * * * * * * * * * * * * //

dimensions      [0 1 -1 0 0 0 0];

internalField   nonuniform List<vector> 
37500
(
(-0.2400524144 0.08703498392 0.138037498)
(0.2560810391 0.07790407651 -0.005475968895)
(-0.07482203212 -0.0106260761 -0.03790774913)
(0.02904698992 0.01424454188 -0.03838986336)
(-0.01228500187 0.002536218236 -0.02836245527)
(0.004534674388 0.005338959801 -0.02363598134)
(0.0002441587437 0.003028060198 -0.01767444564)
(0.00452504028 0.002978410368 -0.01426266774)
(0.005719363367 0.002368297885 -0.01149142794)
(0.008178488512 0.002201896435 -0.009892392771)
(-0.3694003657 0.3307351111 0.2893841429)
(0.389587378 0.06523302919 0.06483801983)
(-0.07773518499 0.03033080748 -0.04722469914)
(0.08142726933 0.03760087827 -0.04470521242)
(0.007850385002 0.02209470252 -0.04016382266)
(0.03408612213 0.02122252217 -0.03425520413)
(0.02434407134 0.01586955856 -0.02686060568)
(0.03067508151 0.01384944396 -0.02198500284)
(0.03199534382 0.01177572545 -0.01792976776)
(0.03607766033 0.01070731319 -0.01547360035)
(-0.3101691394 0.4737446039 0.4284668828)
(0.4354610132 0.0702168174 0.1225212033)
(-0.02778722239 0.07104859815 -0.01020260503)
(0.135767986 0.05779496923 -0.01394907266)
(0.05114506829 0.04572314765 -0.0225381807)
(0.07647567655 0.03905433033 -0.02232300747)
(0.06245942419 0.03170341626 -0.01926926422)
(0.06756638177 0.02723438785 -0.01664538831)
(0.0675755719 0.02378910519 -0.01394420523)
(0.07133691186 0.02175198588 -0.01221248102)
(-0.2106704739 0.5597103042 0.5654827262)
(0.4664144201 0.07302310221 0.1607258606)
(0.03608962313 0.09355195352 0.0446204239)
(0.1901458973 0.06867034432 0.02976949247)
(0.1031875221 0.06171848385 0.009953387875)
(0.1247627813 0.0513915227 0.001321209566)
(0.107300434 0.04354960905 -0.00235757169)
(0.1099535041 0.0375760422 -0.004080495481)
(0.107972939 0.03349126186 -0.004189559521)
(0.1104117606 0.03098323047 -0.004140013931)
(-0.1324276221 0.5932663829 0.6796066666)
(0.4960826126 0.07614945722 0.1844634942)
(0.09747101732 0.09964187873 0.09575450154)
(0.2405828007 0.06949280862 0.07082203494)
(0.1553719583 0.06759116549 0.04505904848)
(0.1731904917 0.05596600259 0.02800793044)
(0.1533711939 0.04906824017 0.01776470815)
(0.1534822902 0.04280136912 0.01114451489)
(0.1494663918 0.03893183401 0.007757931204)
(0.150237018 0.03656315062 0.005738753782)
(-0.08906115544 0.5844854107 0.7617420113)
(0.5243919813 0.07908388508 0.1965301354)
(0.1501805392 0.09417351689 0.1338967635)
(0.2847750784 0.06281437138 0.1018645798)
(0.2030268829 0.06464218891 0.07500199016)
(0.2178825033 0.05345056539 0.05189224308)
(0.1968148958 0.04840088584 0.03675802207)
(0.1948279916 0.04286507718 0.02586881378)
(0.189121324 0.03991237802 0.019497338)
(0.188301276 0.03820637107 0.01549088297)
(-0.07608754514 0.5452975211 0.812124977)
(0.5495616083 0.08059611712 0.1998001476)
(0.1926506981 0.082229071 0.1580634805)
(0.3219980902 0.05189619764 0.121460215)
(0.2441197054 0.05575714989 0.09650846998)
(0.2568170063 0.04589789724 0.06997171476)
(0.2353521058 0.04297412135 0.05206971276)
(0.2318283497 0.03878211582 0.0381630677)
(0.2249098075 0.03714615678 0.02956403251)
(0.2227848818 0.03642282464 0.02397228957)
(-0.08423112149 0.4874480178 0.8362672545)
(0.5705405912 0.07958363308 0.1973634808)
(0.2253728248 0.06778562992 0.1710046209)
(0.3524468656 0.03965867455 0.1313846322)
(0.2782117305 0.04404495423 0.109555704)
(0.2893703393 0.03577200494 0.08158390242)
(0.2680197004 0.03475571201 0.06273512304)
(0.2634288634 0.03208592255 0.04715222075)
(0.2557322453 0.03183530464 0.03723529563)
(0.252630331 0.03217172271 0.03060915924)
(-0.10430896 0.4201123512 0.8415601949)
(0.5872193261 0.0755599879 0.1919333958)
(0.2496417434 0.05341071045 0.1762773722)
(0.3767523537 0.02817327899 0.1345121235)
(0.3056965726 0.03205862035 0.1158153478)
(0.3157707777 0.02528182461 0.0875541308)
(0.2947713095 0.02568340313 0.06895372329)
(0.2894299335 0.02438589774 0.05277542809)
(0.281264183 0.02531976917 0.04235203899)
(0.2774613218 0.02657801091 0.03523411521)
(-0.1290386516 0.3496049571 0.835276099)
(0.600006259 0.06855310839 0.1855004286)
(0.2670057756 0.04049484287 0.1769582978)
(0.395704786 0.01860783636 0.1335982753)
(0.3273103707 0.02150628964 0.1174620388)
(0.3366334096 0.01603812281 0.089389929)
(0.3160454755 0.01730576708 0.07161213413)
(0.3101495811 0.01705571682 0.05552499157)
(0.3017002977 0.01881289602 0.04516969225)
(0.2973917961 0.02071054455 0.03798547337)
(-0.1532842581 0.2796662179 0.8234328501)
(0.6095293465 0.05896706925 0.1793266591)
(0.278996601 0.02959480672 0.1752915025)
(0.4101100332 0.01140334455 0.1307669037)
(0.3438711254 0.01327359952 0.1164737133)
(0.3526943629 0.008967829662 0.08867730299)
(0.3324859653 0.01062544366 0.07184833159)
(0.3261536971 0.01105774336 0.05617640114)
(0.3175136264 0.01322676695 0.04620084125)
(0.3128217766 0.0154190508 0.03921344666)
(-0.1739457438 0.2120255275 0.8103828897)
(0.6164049083 0.04742005018 0.1740933436)
(0.2869680677 0.02075216345 0.1727582937)
(0.420701558 0.006518367459 0.1274388998)
(0.3561434239 0.0075977907 0.1143510676)
(0.3646504959 0.004392796896 0.08675430045)
(0.3447505035 0.006098082404 0.07075044141)
(0.3380609252 0.006892101592 0.05556276862)
(0.3292697281 0.009092837192 0.04606168665)
(0.3242691774 0.01124341061 0.03938043362)
(-0.189637484 0.147110094 0.7988873292)
(0.6211316952 0.03457738086 0.1701289216)
(0.2920082827 0.01370954563 0.1702688299)
(0.4280870164 0.003633413414 0.1244679208)
(0.3647603514 0.004268792082 0.1121005244)
(0.3730746651 0.002171960928 0.08460488476)
(0.3533911847 0.003711781311 0.06920689179)
(0.3464118236 0.004627334938 0.05442970428)
(0.3374836702 0.00655616058 0.0453553978)
(0.332221376 0.008380739377 0.03897299471)
(-0.1999731851 0.08457382274 0.79045393)
(0.6240868087 0.02102271298 0.1675347167)
(0.2949059403 0.008042886233 0.1683487574)
(0.4327199538 0.002283368429 0.1223157897)
(0.3701931414 0.002795045155 0.1103291106)
(0.3783924179 0.001846813323 0.08287036578)
(0.3588289754 0.003102255389 0.06785141686)
(0.3516243633 0.003980759326 0.05335406505)
(0.3425646075 0.005421157978 0.04458211254)
(0.337078379 0.00670916988 0.03841806779)
(-0.2050686114 0.02375808834 0.785776515)
(0.6255090918 0.007269946026 0.1662930078)
(0.2961658818 0.003250218292 0.1672724026)
(0.4349078783 0.001949327484 0.1211864785)
(0.3727542066 0.002525086276 0.1093566404)
(0.3808830359 0.002758819343 0.08191589522)
(0.3613421922 0.003662544607 0.06707856447)
(0.3539795749 0.004409072634 0.05272074272)
(0.3447926732 0.005228712954 0.04409974133)
(0.339120097 0.00585112066 0.03804285437)
(-0.2956383377 0.1126865868 0.2937072977)
(0.2676276008 0.03337134628 -0.07477671939)
(0.02751688624 -0.009379288147 -0.02478834764)
(0.08706601044 0.001417405782 -0.05798869256)
(0.05530812799 -0.001131648904 -0.04030864463)
(0.05682739265 0.0007670398981 -0.04142389068)
(0.04950625963 0.000848221638 -0.03471599312)
(0.04774110423 0.001246536304 -0.03235202479)
(0.04598235298 0.001358032419 -0.0294090634)
(0.04573300332 0.001420839434 -0.0279161018)
(-0.2338204899 0.4465012019 0.5082605026)
(0.4962315265 -0.06213787098 -0.1103281453)
(0.167361236 0.009432629784 -0.02677308222)
(0.2383872181 -0.001686544505 -0.0864634982)
(0.1788843524 0.006113049528 -0.05967416909)
(0.1750905301 0.007484616991 -0.06545563769)
(0.1586849621 0.009257327996 -0.05654246187)
(0.1529156742 0.009728410746 -0.05479877126)
(0.1480985899 0.009914337455 -0.05153824188)
(0.1466526292 0.009671666211 -0.05056249298)
(0.09377908349 0.6211311048 0.6097465754)
(0.6203054446 -0.09819305072 -0.1143608909)
(0.3263325625 0.0302589867 -0.0008591790776)
(0.3764803636 0.0009605562831 -0.06936124265)
(0.3095081001 0.0193676485 -0.04169657738)
(0.2979643899 0.01880406982 -0.05300890001)
(0.2758148256 0.02212653866 -0.04701606965)
(0.2657941232 0.02222825583 -0.04881316332)
(0.2579177783 0.02232701011 -0.04825479385)
(0.2544981821 0.02161726307 -0.04983317565)
(0.4268132979 0.7359331086 0.6975819652)
(0.7023565788 -0.09583996423 -0.1171378169)
(0.4768268304 0.04811710393 0.03165213275)
(0.5013064417 0.008993153444 -0.0387507162)
(0.4380336433 0.03311602641 -0.009047706222)
(0.4201755046 0.03084487302 -0.02441537795)
(0.3948594532 0.03515014496 -0.02191397664)
(0.3810196327 0.03487242227 -0.02773963101)
(0.3702419628 0.03490462847 -0.03065320603)
(0.3643972682 0.03383885387 -0.03534832936)
(0.6839787275 0.7945995572 0.7836716542)
(0.7675343472 -0.06898627142 -0.1274082288)
(0.6080779158 0.06113494746 0.05676679519)
(0.6108242534 0.0184244519 -0.01266181422)
(0.5565827318 0.0439795241 0.02221418931)
(0.5348555128 0.04035003798 0.005507617277)
(0.508666914 0.0450982212 0.00626692839)
(0.4920215026 0.04456573046 -0.002386192024)
(0.4789184553 0.04464404995 -0.00802409407)
(0.4707010622 0.04344282311 -0.0152938773)
(0.8588043398 0.807343273 0.8638123685)
(0.822833712 -0.03155360143 -0.1455266269)
(0.717570885 0.06942957992 0.0698959706)
(0.7040404508 0.02714681976 0.002042160239)
(0.660378148 0.05114361806 0.04413266735)
(0.6367939341 0.04650294296 0.02853318027)
(0.6114542201 0.0511447749 0.02980654075)
(0.5931816537 0.0504194137 0.02019397088)
(0.5785904684 0.05059012858 0.01330171477)
(0.5684502872 0.04942810388 0.004605760937)
(0.9653222628 0.7823694964 0.9325352597)
(0.8696399183 0.006474729182 -0.1685826141)
(0.806183698 0.07315846091 0.07202074894)
(0.7814225599 0.03366531727 0.005003583227)
(0.7477746702 0.05441308702 0.05466566175)
(0.7235352851 0.04912951807 0.04158898379)
(0.7000068727 0.05325088723 0.0451012895)
(0.6810636997 0.05234299506 0.03624979766)
(0.6657835125 0.05257335076 0.02963798084)
(0.6543201702 0.05153640991 0.02081020359)
(1.020613785 0.728915598 0.9872567702)
(0.9082557141 0.03840379313 -0.1931906264)
(0.8761762966 0.07278235591 0.06634177252)
(0.8443814768 0.03733838587 -0.001098339815)
(0.8192773892 0.05411077889 0.0552251736)
(0.7949246098 0.04854435616 0.04500544837)
(0.7735042605 0.05190688747 0.05159193297)
(0.7544702761 0.05081342604 0.04463216658)
(0.7390724834 0.05102160206 0.03947125858)
(0.7268288318 0.05011002131 0.03160259411)
(1.040721809 0.6548192502 1.028028409)
(0.9393103402 0.0606196766 -0.2167266007)
(0.9302122387 0.06884095629 0.05624313483)
(0.8947313046 0.03806666432 -0.01276791523)
(0.8764880851 0.05080327144 0.04869128441)
(0.8521805513 0.04528585642 0.04091295743)
(0.8327336867 0.04781027562 0.05060531708)
(0.813857862 0.04654927629 0.0459880493)
(0.7986489844 0.04664861057 0.04291150545)
(0.7860049694 0.04581160481 0.03669904204)
(1.039463538 0.56644169 1.05673043)
(0.9637215999 0.07188480054 -0.2376026435)
(0.9709698382 0.06194601858 0.04444281791)
(0.9343031569 0.03608723464 -0.02685169985)
(0.9213506979 0.04515592505 0.03814464954)
(0.897086229 0.03997799991 0.03205926397)
(0.879268212 0.04170161115 0.0443738333)
(0.860584554 0.04032281849 0.04200799745)
(0.8456618696 0.04025069587 0.04114394214)
(0.8328326877 0.03942260356 0.03685951756)
(1.027699662 0.4684728847 1.075808296)
(0.9824714349 0.07269317253 -0.2550752596)
(1.000935347 0.05270808335 0.03282295763)
(0.9647412881 0.03180514877 -0.0409731811)
(0.955736495 0.03781357289 0.02621290454)
(0.9314723778 0.03322009596 0.02106994306)
(0.9148831031 0.03425428441 0.03531619704)
(0.8963237054 0.03283395281 0.03479672567)
(0.8816591094 0.03256363739 0.03591587173)
(0.8687345871 0.0316902389 0.03348542912)
(1.013001788 0.3642406078 1.087650362)
(0.99643082 0.06460453499 -0.2689317306)
(1.022261004 0.04169640499 0.02256831848)
(0.9874179623 0.02568904912 -0.05354442466)
(0.9812483162 0.02933293561 0.01485206559)
(0.9569458882 0.02552284821 0.01008462852)
(0.9412080885 0.02601361848 0.02559622536)
(0.9226797319 0.02464383571 0.0264181476)
(0.9081829091 0.02418170828 0.02910970464)
(0.8951765086 0.02323075359 0.02824176322)
(0.9998527228 0.2560386937 1.094347913)
(1.006292591 0.04967997034 -0.2792061367)
(1.036665752 0.02941372147 0.0143753198)
(1.003405697 0.01820662963 -0.06360044404)
(0.9991492062 0.02015046665 0.00538363498)
(0.9747847538 0.01727845696 0.0006672105663)
(0.9595768258 0.01737601776 0.01692600587)
(0.9409952201 0.01614939176 0.01862797225)
(0.9265626475 0.0155237676 0.02244202652)
(0.9134504848 0.0144862829 0.02275017529)
(0.9902696328 0.1454430556 1.097419091)
(1.012546693 0.03005527684 -0.2860077443)
(1.045398748 0.01629071627 0.008647187249)
(1.013482228 0.009790819025 -0.07058379159)
(1.010361986 0.01058360937 -0.001353346977)
(0.9859185561 0.008762963575 -0.006129658608)
(0.9709694734 0.008601419883 0.01053297792)
(0.9522733425 0.007599570793 0.01275913746)
(0.9378039182 0.006852964092 0.01728717479)
(0.9245496226 0.00574142011 0.01837289891)
(0.9847516214 0.03384449066 1.097877368)
(1.015487604 0.007714131613 -0.2894119834)
(1.049232603 0.002701528095 0.005630386863)
(1.018117832 0.0008176839385 -0.07417803592)
(1.015452855 0.0008438263423 -0.004852404989)
(0.9909137897 0.0001470639939 -0.009650091485)
(0.9759958767 -0.0001716810135 0.00721492625)
(0.957147444 -0.0008890227625 0.009712000536)
(0.9425562269 -0.001718527446 0.01460787943)
(0.9291267838 -0.002888442779 0.01609402029)
(-0.3470309559 0.1298788903 0.303995596)
(0.2249059777 0.02483866295 -0.000665055537)
(0.03865536682 -0.003325235948 -0.01012250855)
(0.09623654329 0.004555099735 -0.04204307326)
(0.07743957922 0.002109188476 -0.04016684047)
(0.0798799125 0.002707148376 -0.04606333529)
(0.07609501545 0.0023617672 -0.0442778139)
(0.07510653123 0.002259636862 -0.04416650206)
(0.07437286539 0.002182901723 -0.04252323447)
(0.07439596433 0.002113943421 -0.04143457535)
(-0.2043433199 0.581451525 0.55036948)
(0.4771020927 -0.07632165383 0.007015522108)
(0.2260138262 0.02489072062 -0.01479307508)
(0.2894723437 0.00411616422 -0.06940379552)
(0.2501587563 0.01110591949 -0.06943014146)
(0.2478008973 0.009282777971 -0.08176673499)
(0.2377200343 0.009746335906 -0.08080371518)
(0.2336864078 0.009106492912 -0.08230383948)
(0.2310039712 0.00883915858 -0.08095150568)
(0.2302995371 0.008359685532 -0.08037706062)
(0.2737955688 0.8150514446 0.6726145827)
(0.6429640859 -0.1312269884 0.01864887975)
(0.4397191123 0.05251450286 0.005063153867)
(0.4726375072 0.007402535718 -0.05605104928)
(0.427918814 0.02576694632 -0.0587008641)
(0.418164799 0.02021736954 -0.07577060632)
(0.4039204665 0.02146337482 -0.07811868884)
(0.3967266007 0.01978147616 -0.08284881736)
(0.3920052361 0.01902623314 -0.08408940728)
(0.3899974409 0.01780686392 -0.08586371007)
(0.7481333123 0.9639673033 0.781100241)
(0.7554728403 -0.1334839241 0.03487561823)
(0.6386291907 0.07752468399 0.04069751526)
(0.6355092229 0.01899444162 -0.02192851867)
(0.5972269575 0.04403548617 -0.02490506668)
(0.5819904441 0.03496900068 -0.04561426849)
(0.5664888013 0.03625674317 -0.05159640146)
(0.5570039817 0.03317198565 -0.06005179381)
(0.550707699 0.03161102157 -0.06464958958)
(0.5472422119 0.0294248573 -0.06943119514)
(1.116315934 1.03186185 0.8941132411)
(0.8416223615 -0.1010966831 0.0514658507)
(0.8090028753 0.09673242221 0.0790202287)
(0.774462013 0.03406789071 0.0165544945)
(0.7490284761 0.06126855429 0.01592487547)
(0.7311392732 0.04959214184 -0.006825824788)
(0.7171681559 0.05038681983 -0.01527692609)
(0.7067513606 0.04589315136 -0.02674031506)
(0.6997570285 0.04340926665 -0.03420778128)
(0.6951259678 0.04022443845 -0.04162635789)
(1.374069128 1.038529454 1.006202237)
(0.9123096154 -0.05350764379 0.06474476692)
(0.9495073095 0.1094449291 0.1117462057)
(0.8899953087 0.04891091591 0.04981703886)
(0.8791593625 0.0752021808 0.05331712071)
(0.860649958 0.06210953967 0.03014618753)
(0.8500885812 0.06214489651 0.02089155598)
(0.8399986586 0.05645821958 0.007773249696)
(0.8332611693 0.05307647878 -0.001397321127)
(0.8280219016 0.0489776388 -0.01047842169)
(1.541976845 0.9980738702 1.10845666)
(0.9713156476 -0.004343168378 0.07345466337)
(1.062807917 0.1154930638 0.1358637213)
(0.9844114305 0.06063830002 0.07413595762)
(0.9871733914 0.08423155981 0.08236092721)
(0.9690170433 0.07088500813 0.05987363024)
(0.9626536947 0.07017421666 0.05121398659)
(0.9536965833 0.06367150297 0.03778497286)
(0.9479475302 0.05954700323 0.02817967908)
(0.9426759368 0.05471570703 0.0185561758)
(1.642774636 0.9240364411 1.19502864)
(1.02006945 0.03745448748 0.07795311267)
(1.152616023 0.11532016 0.1515782023)
(1.060585169 0.06775440328 0.08942983896)
(1.074790517 0.08773958965 0.1020480877)
(1.057216593 0.0750431361 0.08068456232)
(1.054999998 0.07375072976 0.07341824609)
(1.047485122 0.06687146024 0.06062042769)
(1.043107099 0.06224457939 0.05156187588)
(1.038228901 0.05692541836 0.04232349665)
(1.696777529 0.8265229199 1.263783809)
(1.059735109 0.06702480913 0.07922750258)
(1.222618182 0.1095390458 0.1604608222)
(1.121363334 0.06971031004 0.09732039293)
(1.144628941 0.08578016731 0.1134973293)
(1.127510044 0.07432797312 0.09318866446)
(1.128910233 0.07265782029 0.08752757688)
(1.122784051 0.0658209486 0.07580040543)
(1.119849632 0.06096723839 0.06783300528)
(1.115586503 0.05543264575 0.05955084449)
(1.721103216 0.7129591169 1.315484487)
(1.091474371 0.08263460842 0.07831881841)
(1.276196399 0.09890825907 0.1643916189)
(1.169252279 0.06661013438 0.09991343854)
(1.199402925 0.07886685185 0.1186790055)
(1.182522268 0.06897995853 0.09909807102)
(1.186822909 0.06711089222 0.09485588391)
(1.181841886 0.06066090364 0.08423127509)
(1.18021228 0.05584353971 0.07749536964)
(1.176611814 0.05036146416 0.07037831867)
(1.728949389 0.5883627245 1.352374247)
(1.116352354 0.08481415386 0.07611705165)
(1.316325344 0.08424619414 0.1650835056)
(1.206311514 0.05895889002 0.09918108009)
(1.241519058 0.06775898399 0.1196624709)
(1.224696943 0.05955891194 0.1004381838)
(1.231177349 0.05762368794 0.09724864417)
(1.227038065 0.0518133081 0.08752128808)
(1.226469031 0.04725417918 0.08188312856)
(1.223460825 0.04206177591 0.07586668584)
(1.729331452 0.4561317858 1.377150095)
(1.135243733 0.07550636852 0.07333323263)
(1.345485224 0.06638679748 0.1639319988)
(1.23414732 0.04749429641 0.09672962741)
(1.272929679 0.05331496566 0.1182529151)
(1.256057125 0.04679962174 0.09909918382)
(1.264076905 0.04488804983 0.09658356513)
(1.260492358 0.03988433054 0.08747143736)
(1.260704942 0.03575391302 0.08266778788)
(1.258155556 0.03104421686 0.07753423024)
(1.727469415 0.3186272495 1.392482233)
(1.148817336 0.0573453364 0.07052361226)
(1.365609308 0.04614920632 0.1620031926)
(1.253951695 0.03307035925 0.09376603331)
(1.295116909 0.03640128076 0.1158682195)
(1.278143733 0.03150832897 0.09663189249)
(1.287162552 0.02967795665 0.09449184053)
(1.283890897 0.02557963391 0.08574179376)
(1.284612648 0.02199844227 0.08149245318)
(1.282363812 0.01791648157 0.07697516452)
(1.725492254 0.1776034143 1.400501472)
(1.157532511 0.0331075171 0.06812234638)
(1.378062889 0.0243227131 0.1600690288)
(1.266541238 0.01658585523 0.09114207395)
(1.309109605 0.01785306453 0.113536869)
(1.292020746 0.01450650749 0.09418903128)
(1.301590249 0.01279788647 0.09223317214)
(1.298439594 0.009659604896 0.08366753803)
(1.299421788 0.006709314642 0.07973551703)
(1.297311994 0.003357157846 0.07558210499)
(1.723649077 0.03496059137 1.402686602)
(1.161659315 0.005451083395 0.0664458524)
(1.38366819 0.001735098114 0.1586496549)
(1.272387337 -0.001027018873 0.08941389281)
(1.315519658 -0.001517133861 0.1119390594)
(1.298314205 -0.003395825021 0.09253886257)
(1.308051698 -0.004960607908 0.09066496898)
(1.304867982 -0.00712132072 0.08217766985)
(1.305886011 -0.009397933751 0.07837890021)
(1.303761322 -0.01196460245 0.07437030631)
(-0.4090366041 0.1171558259 0.1778170418)
(0.2144190422 0.007404672651 0.004022700122)
(0.05427263939 -0.00579398163 -0.01578323985)
(0.1072637112 -0.001270150348 -0.04095509455)
(0.097905612 0.000374089719 -0.04249058935)
(0.09772578669 0.000486436 -0.04903367529)
(0.09576912038 0.001303493877 -0.04875267643)
(0.09366319255 0.001255286679 -0.04951203613)
(0.09291448284 0.001512846684 -0.04858720413)
(0.09231379312 0.001496587805 -0.04796958792)
(-0.2597531686 0.6090538069 0.3277932146)
(0.4933995562 -0.1148776194 0.006886231255)
(0.2762707706 0.01357169883 -0.03395018337)
(0.3306654247 -0.01327248558 -0.07622959391)
(0.3046737645 0.0005728401381 -0.08142953847)
(0.2974981809 -0.0012484749 -0.09420392539)
(0.2903003364 0.001616775139 -0.09552058402)
(0.2845127695 0.001670666803 -0.09830205839)
(0.2820119586 0.002391876415 -0.09809201131)
(0.2804698954 0.002397421858 -0.09827237552)
(0.2868861385 0.8489847103 0.4100176002)
(0.6914295854 -0.1923673653 0.01304356516)
(0.5251354946 0.03150117856 -0.02892373386)
(0.5432342241 -0.02133396619 -0.07486957712)
(0.5111546412 0.005319055266 -0.08207132634)
(0.4953610541 0.000365510389 -0.09816095368)
(0.4841917501 0.004745054603 -0.102089631)
(0.4753784518 0.004399735805 -0.107576757)
(0.4713189737 0.005170663906 -0.1097001977)
(0.4688852674 0.00489087373 -0.1120857506)
(0.833274023 0.9944554032 0.4933965264)
(0.8263109344 -0.206974284 0.02785675115)
(0.7544127499 0.04821174736 -0.005478194908)
(0.7304087094 -0.01870431978 -0.05081213831)
(0.7044627809 0.01547619938 -0.0574227216)
(0.6823820265 0.007357837415 -0.07531753237)
(0.6702176732 0.01225707062 -0.08164036963)
(0.6595676828 0.01094476012 -0.08993396995)
(0.6546280124 0.01127933718 -0.09486650695)
(0.6514440776 0.01034428687 -0.09994156933)
(1.256130185 1.051880606 0.5893792497)
(0.9267637597 -0.1772418123 0.04870812235)
(0.9490007828 0.06182259844 0.02618745263)
(0.8882624832 -0.009022593485 -0.0171924001)
(0.8760353312 0.02724359022 -0.02102133766)
(0.8508826146 0.01669037341 -0.03929745898)
(0.8407770163 0.02125615825 -0.04693179986)
(0.8297678026 0.01874891544 -0.05733287612)
(0.8249064131 0.01832354183 -0.06459615945)
(0.8213406642 0.01652654888 -0.07200837145)
(1.548790471 1.046113189 0.6921881992)
(1.006720102 -0.125561322 0.07136163841)
(1.108248808 0.07183536265 0.05797132896)
(1.018387758 0.003874319451 0.01675539154)
(1.022366056 0.03852487276 0.01700385291)
(0.9964661694 0.0266064941 -0.0003783953811)
(0.9904908412 0.03032801106 -0.007961744876)
(0.9803932287 0.02666778908 -0.01931642541)
(0.9765354492 0.02534330931 -0.0278960549)
(0.9730901552 0.02263082937 -0.03678823874)
(1.735105947 0.9941049129 0.7929439188)
(1.071934319 -0.06811657838 0.09299733126)
(1.235825918 0.07780977954 0.08557749034)
(1.124158856 0.01652170873 0.04612130142)
(1.143607472 0.0473845307 0.0507808588)
(1.11813467 0.03518213211 0.03510637833)
(1.117160704 0.03790213753 0.02868205832)
(1.108737248 0.03334919243 0.01749321011)
(1.106527054 0.03117426065 0.008681058778)
(1.103664495 0.02764233357 -0.0007193670457)
(1.84206103 0.9112568883 0.8846390646)
(1.124918041 -0.01601913024 0.1122331125)
(1.336323619 0.07967979205 0.1075283279)
(1.209232861 0.02672728149 0.0691681537)
(1.241971999 0.05270963184 0.0778470735)
(1.217282274 0.04106837116 0.06413933147)
(1.221260877 0.04284055516 0.05947760274)
(1.214764609 0.0377604966 0.04922428896)
(1.214488601 0.03491400218 0.04100887018)
(1.212513142 0.03076594305 0.03189410233)
(1.894161731 0.8083509027 0.963190891)
(1.16750177 0.02420403758 0.1285479395)
(1.414163597 0.07745394779 0.1238927502)
(1.277007448 0.03324357619 0.08597839423)
(1.320475975 0.05401356328 0.09789130932)
(1.296520133 0.04348691523 0.08598078486)
(1.304876156 0.04444950185 0.08319547605)
(1.300202045 0.03921324663 0.07421696044)
(1.301845323 0.03593467007 0.06704897647)
(1.300878339 0.0314287261 0.0587037012)
(1.912193967 0.6926699523 1.027097899)
(1.201284056 0.04970650729 0.1418410201)
(1.473368338 0.07131500049 0.1354190547)
(1.330385192 0.03555909438 0.09746127062)
(1.382161399 0.05130944145 0.1117216981)
(1.358764864 0.0421931776 0.1012139025)
(1.370708484 0.04249408548 0.1000824555)
(1.367566647 0.03741358364 0.09236882898)
(1.370919959 0.03394313999 0.08635512088)
(1.370930313 0.02934092199 0.0789545815)
(1.912303431 0.568637354 1.076556214)
(1.227620967 0.06043479619 0.1521976761)
(1.517448793 0.06160733637 0.1430555605)
(1.371713201 0.03369142443 0.1047691495)
(1.429703979 0.04493896057 0.120578556)
(1.406696971 0.03734276576 0.1110302192)
(1.421416778 0.03710953648 0.1111739375)
(1.419458004 0.03241490098 0.1045094167)
(1.42421478 0.02895716414 0.09952423687)
(1.425072981 0.02448967842 0.09301671319)
(1.905498049 0.4388850579 1.11264688)
(1.247562737 0.05818390252 0.1597928953)
(1.549327813 0.04882913452 0.1477207174)
(1.402800762 0.02803886243 0.1089989841)
(1.465264995 0.03544997061 0.1257359993)
(1.442521076 0.02937016902 0.1167672931)
(1.459272911 0.02870410946 0.1177899998)
(1.458161621 0.0245465878 0.1118864097)
(1.463983802 0.02125766231 0.1076925292)
(1.465506906 0.01710810144 0.101900245)
(1.898166861 0.305043947 1.136856089)
(1.261887407 0.04573702911 0.1648294175)
(1.571271466 0.03360062213 0.1501983296)
(1.424978432 0.01926021887 0.1110682803)
(1.490477377 0.02351084684 0.1283022863)
(1.467904023 0.01888660901 0.1196412763)
(1.486037361 0.01786711064 0.121208172)
(1.485476347 0.01433580161 0.1157929261)
(1.492031802 0.01132492094 0.1121335184)
(1.494016024 0.007625438357 0.1068367405)
(1.892832874 0.1682938759 1.150521116)
(1.271112699 0.02618643772 0.1675115373)
(1.584876159 0.01663606547 0.1510924941)
(1.439150578 0.008184540803 0.1116668224)
(1.506477205 0.009861469812 0.1291308723)
(1.483992459 0.006618246341 0.1206107439)
(1.502941942 0.005311686896 0.1224730241)
(1.502676342 0.002455338851 0.1173290166)
(1.50965321 -0.000205042626 0.1139763332)
(1.511892506 -0.003366656136 0.1089638507)
(1.889721137 0.03016533055 1.154672003)
(1.27553122 0.002526478292 0.1680023873)
(1.591090341 -0.001242356907 0.1508085288)
(1.445827561 -0.004262734761 0.1112450448)
(1.513931399 -0.004716007496 0.1287877153)
(1.491449282 -0.006653203909 0.1203178132)
(1.510710887 -0.008194200584 0.1222979839)
(1.510514744 -0.01035776067 0.117260516)
(1.517621305 -0.01262754764 0.1140242376)
(1.519915366 -0.01520487257 0.109107893)
(-0.4854215598 0.1048728051 0.1530514627)
(0.1918979002 0.005999826317 0.03460173461)
(0.03393120832 -0.006345681745 0.0005563284935)
(0.09796826198 -0.001276088097 -0.01896835914)
(0.09612025546 0.0007544189945 -0.02788978736)
(0.09947247863 0.0005383287263 -0.03627836465)
(0.101054877 0.001454402129 -0.0397963544)
(0.100543886 0.001291856407 -0.04265023572)
(0.1012085024 0.001611420952 -0.04368573515)
(0.1012621909 0.001611289967 -0.04431917812)
(-0.3939445314 0.6300632952 0.2880735546)
(0.4685860127 -0.115200958 0.05504077835)
(0.2531853912 0.01552492198 -0.00914169636)
(0.3263848545 -0.01471946988 -0.04297340065)
(0.311845504 -0.001336609746 -0.06035930089)
(0.3106012129 -0.004496634185 -0.07602869278)
(0.3092707119 -0.001848954427 -0.08352661935)
(0.3063139787 -0.002061077481 -0.08960626469)
(0.3063534842 -0.001185465992 -0.09248693404)
(0.3061034387 -0.0009856972623 -0.09454905004)
(0.1637956439 0.8777436972 0.3594523138)
(0.6817357076 -0.204598352 0.06258931478)
(0.5178462173 0.03044120286 -0.009596036112)
(0.5541624224 -0.02864007111 -0.04702377714)
(0.5328475982 -0.002390287702 -0.0672424606)
(0.52272866 -0.009345700626 -0.08558496755)
(0.517456591 -0.005311041296 -0.09536184405)
(0.5116452956 -0.005890707459 -0.1035594178)
(0.5104320368 -0.004773513778 -0.1082862456)
(0.509618666 -0.004582203788 -0.1120371263)
(0.743800832 1.020885344 0.4299493428)
(0.8313750522 -0.229962072 0.07602910147)
(0.766051196 0.04135542197 0.004954257489)
(0.7572132323 -0.03309942258 -0.03243782849)
(0.7409569291 0.001126049833 -0.05240648576)
(0.7235412165 -0.009386555755 -0.07150821637)
(0.7167648711 -0.004831992747 -0.08257458082)
(0.7089645063 -0.006331349625 -0.09236045389)
(0.7069618111 -0.005471007775 -0.09881555619)
(0.705660056 -0.005698536695 -0.1042865036)
(1.197634858 1.068443237 0.5149049703)
(0.9425745333 -0.2063493926 0.09785746561)
(0.9766725166 0.04920587447 0.03040385349)
(0.9280092534 -0.02954820338 -0.005739100654)
(0.9252652545 0.006951432916 -0.02373683677)
(0.9039854265 -0.006229858653 -0.04253254223)
(0.8989892949 -0.002032851507 -0.05401555549)
(0.8907453251 -0.004736574111 -0.06480179453)
(0.8889566217 -0.004553367852 -0.07254884615)
(0.8875601555 -0.005515013603 -0.07940736677)
(1.510278808 1.049031877 0.6115929815)
(1.029785032 -0.1565990267 0.1249395572)
(1.14800932 0.05442050118 0.06050703488)
(1.067886556 -0.0210987154 0.02596130048)
(1.081873178 0.01372360247 0.01083015481)
(1.059483117 -0.0009006990075 -0.006881150577)
(1.058714727 0.002404175581 -0.01791855031)
(1.051476606 -0.001498990999 -0.02896366836)
(1.050931355 -0.002216465233 -0.03731935047)
(1.04997104 -0.004066690519 -0.04497110135)
(1.70483349 0.982745624 0.7123819859)
(1.099834501 -0.09789262762 0.1538356008)
(1.284207851 0.05710833421 0.0905631107)
(1.180886603 -0.01097872017 0.05749380182)
(1.211236011 0.01983236084 0.04546990538)
(1.189257528 0.004987564015 0.02931640491)
(1.193873673 0.00723978904 0.01939833311)
(1.188560411 0.002387572915 0.008787070164)
(1.189985913 0.0007621236315 0.0005201505759)
(1.189926971 -0.001953982886 -0.007288860464)
(1.810309164 0.8876895621 0.8098779544)
(1.156020278 -0.04248002491 0.1820464265)
(1.390589092 0.05741847064 0.1178657279)
(1.271342733 -0.00138974328 0.08591468921)
(1.315971482 0.02424383697 0.07675691642)
(1.294978839 0.01013431372 0.06228681462)
(1.305085092 0.01140134551 0.05383825332)
(1.302041853 0.005977310642 0.04411976308)
(1.305767483 0.00359318739 0.03645463089)
(1.306901218 0.0001700042919 0.02898572525)