# vtk DataFile Version 2.0
Back projection of projected FE elements on NURBS mesh
ASCII
DATASET POLYDATA
POINTS 120 float
0.0333333 0 0.1
0.0333333 0 0
0 0 0
0 0 0.1
0.0666667 0 0.1
0.0666667 0 0
0.0333333 0 0
0.0333333 0 0.1
0.1 0 0.1
0.1 0 0
0.0666667 0 0
0.0666667 0 0.1
0.133333 0 0.1
0.133333 0 0
0.1 0 0
0.1 0 0.1
0.166667 0 0.1
0.166667 0 0
0.133333 0 0
0.133333 0 0.1
0.2 0 0.1
0.2 0 0
0.166667 0 0
0.166667 0 0.1
0.233333 0 0.1
0.233333 0 0
0.2 0 0
0.2 0 0.1
0.266667 0 0.1
0.266667 0 0
0.233333 0 0
0.233333 0 0.1
0.3 0 0.1
0.3 0 0
0.266667 0 0
0.266667 0 0.1
0.333333 0 0.1
0.333333 0 0
0.3 0 0
0.3 0 0.1
0.366667 0 0.1
0.366667 0 0
0.333333 0 0
0.333333 0 0.1
0.4 0 0.1
0.4 0 0
0.366667 0 0
0.366667 0 0.1
0.433333 0 0.1
0.433333 0 0
0.4 0 0
0.4 0 0.1
0.466667 0 0.1
0.466667 0 0
0.433333 0 0
0.433333 0 0.1
0.5 0 0.1
0.5 0 0
0.466667 0 0
0.466667 0 0.1
0.533333 0 0.1
0.533333 0 0
0.5 0 0
0.5 0 0.1
0.566667 0 0.1
0.566667 0 0
0.533333 0 0
0.533333 0 0.1
0.6 0 0.1
0.6 0 0
0.566667 0 0
0.566667 0 0.1
0.633333 0 0.1
0.633333 0 0
0.6 0 0
0.6 0 0.1
0.666667 0 0.1
0.666667 0 0
0.633333 0 0
0.633333 0 0.1
0.7 0 0.1
0.7 0 0
0.666667 0 0
0.666667 0 0.1
0.733333 0 0.1
0.733333 0 0
0.7 0 0
0.7 0 0.1
0.766667 0 0.1
0.766667 0 0
0.733333 0 0
0.733333 0 0.1
0.8 0 0.1
0.8 0 0
0.766667 0 0
0.766667 0 0.1
0.833333 0 0.1
0.833333 0 0
0.8 0 0
0.8 0 0.1
0.866667 0 0.1
0.866667 0 0
0.833333 0 0
0.833333 0 0.1
0.9 0 0.1
0.9 0 0
0.866667 0 0
0.866667 0 0.1
0.933333 0 0.1
0.933333 0 0
0.9 0 0
0.9 0 0.1
0.966667 0 0.1
0.966667 0 0
0.933333 0 0
0.933333 0 0.1
1 0 0.1
1 0 0
0.966667 0 0
0.966667 0 0.1
POLYGONS 30 150
4 0 1 2 3
4 4 5 6 7
4 8 9 10 11
4 12 13 14 15
4 16 17 18 19
4 20 21 22 23
4 24 25 26 27
4 28 29 30 31
4 32 33 34 35
4 36 37 38 39
4 40 41 42 43
4 44 45 46 47
4 48 49 50 51
4 52 53 54 55
4 56 57 58 59
4 60 61 62 63
4 64 65 66 67
4 68 69 70 71
4 72 73 74 75
4 76 77 78 79
4 80 81 82 83
4 84 85 86 87
4 88 89 90 91
4 92 93 94 95
4 96 97 98 99
4 100 101 102 103
4 104 105 106 107
4 108 109 110 111
4 112 113 114 115
4 116 117 118 119
CELL_DATA 30
SCALARS patch_belonging int 1
LOOKUP_TABLE default
0
0
0
0
0
0
0
0
0
0
0
0
0
0
0
0
0
0
0
0
0
0
0
0
0
0
0
0
0
0
